LAMMPS data file Created by LigParGen - (Written by Leela S. Dodda)

       9 atoms
       8 bonds
      10 angles
      10 dihedrals
       3 impropers
 
       9 atom types
       8 bond types
      10 angle types
      10 dihedral types
       3 improper types
 
   -2.703760    47.296240 xlo xhi
    0.998820    50.998820 ylo yhi
   -0.933570    49.066430 zlo zhi

Masses

       1     12.011  
       2     12.011  
       3     12.011  
       4     15.999  
       5     15.999  
       6      1.008  
       7      1.008  
       8      1.008  
       9      1.008  

Pair Coeffs 

       1      0.076  3.5500000 
       2      0.076  3.5500000 
       3      0.070  3.5500000 
       4      0.210  2.9600000 
       5      0.170  3.1200000 
       6      0.030  2.5000000 
       7      0.030  2.5000000 
       8      0.030  2.5000000 
       9      0.000  0.0000000 

Bond Coeffs 

       1   549.0000     1.3400 
       2   410.0000     1.4440 
       3   570.0000     1.2290 
       4   450.0000     1.3640 
       5   340.0000     1.0800 
       6   340.0000     1.0800 
       7   340.0000     1.0800 
       8   553.0000     0.9450 

Angle Coeffs 

       1     85.000    120.700
       2     80.000    125.300
       3     70.000    120.000
       4     35.000    120.000
       5     35.000    120.000
       6     35.000    120.000
       7     35.000    113.000
       8     35.000    117.000
       9     80.000    121.000
      10     35.000    119.700

Dihedral Coeffs  

       1      2.500      6.000      0.000      0.000 
       2      0.000     14.000      0.000      0.000 
       3      1.500      5.500      0.000      0.000 
       4      0.000      5.500      0.000      0.000 
       5      0.000     14.000      0.000      0.000 
       6      0.000      0.000      0.000      0.000 
       7      0.000      0.000      0.000      0.000 
       8      3.200     -3.000      0.000      0.000 
       9      0.000     14.000      0.000      0.000 
      10      0.000     14.000      0.000      0.000 

Improper Coeffs 

       1     10.500      -1       2 
       2      2.500      -1       2 
       3      2.500      -1       2 

Atoms 

     1      1      1 -0.12460000    1.000  1.00000  0.00000
     2      1      2 -0.32960000   -0.339  1.00000  0.00000
     3      1      3 0.51140000   -1.079  1.00000  1.27983
     4      1      4 -0.40310000   -0.557  1.00000  2.38092
     5      1      5 -0.56010000   -2.413  1.00158  1.08996
     6      1      6 0.14820000    1.559  0.99882 -0.92969
     7      1      7 0.14820000    1.568  1.00235  0.92764
     8      1      8 0.15200000   -0.885  0.99882 -0.93357
     9      1      9 0.45760000   -2.704  1.00249  0.16112

Bonds 

     1      1      2      1
     2      2      3      2
     3      3      4      3
     4      4      5      3
     5      5      6      1
     6      6      7      1
     7      7      8      2
     8      8      9      5

Angles 

     1      1      1      2      3
     2      2      2      3      4
     3      3      2      3      5
     4      4      2      1      6
     5      5      2      1      7
     6      6      1      2      8
     7      7      3      5      9
     8      8      6      1      7
     9      9      4      3      5
    10     10      3      2      8

Dihedrals

     1      1      4      3      2      1 
     2      2      6      1      2      3 
     3      3      9      5      3      2 
     4      4      9      5      3      4 
     5      5      8      2      1      7 
     6      6      8      2      3      4 
     7      7      8      2      3      5 
     8      8      5      3      2      1 
     9      9      8      2      1      6 
    10     10      7      1      2      3 

Impropers

     1      1      3      2      4      5 
     2      2      1      2      6      7 
     3      3      2      1      3      8 

