LAMMPS data file Created by LigParGen - (Written by Leela S. Dodda)

      10 atoms
       9 bonds
      12 angles
      12 dihedrals
       4 impropers
 
      10 atom types
       9 bond types
      12 angle types
      12 dihedral types
       4 improper types
 
   -3.002140    46.997860 xlo xhi
    0.998820    50.998820 ylo yhi
   -0.930630    49.069370 zlo zhi

Masses

       1     12.011  
       2     12.011  
       3     12.011  
       4     14.007  
       5     15.999  
       6      1.008  
       7      1.008  
       8      1.008  
       9      1.008  
      10      1.008  

Pair Coeffs 

       1      0.076  3.5500000 
       2      0.076  3.5500000 
       3      0.070  3.5500000 
       4      0.170  3.2500000 
       5      0.210  2.9600000 
       6      0.030  2.5000000 
       7      0.030  2.5000000 
       8      0.030  2.5000000 
       9      0.000  0.0000000 
      10      0.000  0.0000000 

Bond Coeffs 

       1   549.0000     1.3400 
       2   410.0000     1.4440 
       3   490.0000     1.3350 
       4   570.0000     1.2290 
       5   340.0000     1.0800 
       6   340.0000     1.0800 
       7   340.0000     1.0800 
       8   434.0000     1.0100 
       9   434.0000     1.0100 

Angle Coeffs 

       1     85.000    120.700
       2     70.000    115.500
       3     80.000    125.300
       4     35.000    120.000
       5     35.000    120.000
       6     35.000    120.000
       7     35.000    119.800
       8     35.000    119.800
       9     35.000    117.000
      10     35.000    120.000
      11     80.000    122.900
      12     35.000    119.700

Dihedral Coeffs  

       1      2.000      0.000      0.000      0.000 
       2      0.000     14.000      0.000      0.000 
       3      0.000      4.900      0.000      0.000 
       4      0.000     14.000      0.000      0.000 
       5      0.000     14.000      0.000      0.000 
       6      0.000      0.000      0.000      0.000 
       7      0.000      4.900      0.000      0.000 
       8      0.000      0.000      0.000      0.000 
       9      2.500      6.000      0.000      0.000 
      10      0.000      4.900      0.000      0.000 
      11      0.000      4.900      0.000      0.000 
      12      0.000     14.000      0.000      0.000 

Improper Coeffs 

       1     10.500      -1       2 
       2      2.500      -1       2 
       3      2.500      -1       2 
       4      2.500      -1       2 

Atoms 

     1      1      1 -0.14660000    1.000  1.00000  0.00000
     2      1      2 -0.26610000   -0.339  1.00000  0.00000
     3      1      3 0.68450000   -1.088  1.00000  1.27665
     4      1      4 -1.32430000   -2.438  1.00157  1.11671
     5      1      5 -0.44850000   -0.562  1.00000  2.37939
     6      1      6 0.14480000    1.557  0.99882 -0.93063
     7      1      7 0.14480000    1.567  1.00235  0.92776
     8      1      8 0.14640000   -0.893  0.99883 -0.92922
     9      1      9 0.53260000   -2.901  1.00265  0.22061
    10      1     10 0.53260000   -3.002  1.00279  1.95618

Bonds 

     1      1      2      1
     2      2      3      2
     3      3      4      3
     4      4      5      3
     5      5      6      1
     6      6      7      1
     7      7      8      2
     8      8      9      4
     9      9     10      4

Angles 

     1      1      1      2      3
     2      2      2      3      4
     3      3      2      3      5
     4      4      2      1      6
     5      5      2      1      7
     6      6      1      2      8
     7      7      3      4      9
     8      8      3      4     10
     9      9      6      1      7
    10     10      9      4     10
    11     11      4      3      5
    12     12      3      2      8

Dihedrals

     1      1      4      3      2      1 
     2      2      6      1      2      3 
     3      3      9      4      3      2 
     4      4      8      2      1      6 
     5      5      8      2      1      7 
     6      6      8      2      3      4 
     7      7     10      4      3      2 
     8      8      8      2      3      5 
     9      9      5      3      2      1 
    10     10     10      4      3      5 
    11     11      9      4      3      5 
    12     12      7      1      2      3 

Impropers

     1      1      3      2      4      5 
     2      2      1      2      6      7 
     3      3      2      1      3      8 
     4      4      4      9     10      3 

