LAMMPS data file Created by LigParGen - (Written by Leela S. Dodda)

       9 atoms
       8 bonds
      10 angles
      10 dihedrals
       3 impropers
 
       9 atom types
       8 bond types
      10 angle types
      10 dihedral types
       3 improper types
 
   -3.046270    46.953730 xlo xhi
    0.997300    50.997300 ylo yhi
   -2.453650    47.546350 zlo zhi

Masses

       1     15.999  
       2     12.011  
       3     15.999  
       4     12.011  
       5     12.011  
       6      1.008  
       7      1.008  
       8      1.008  
       9      1.008  

Pair Coeffs 

       1      0.210  2.9600000 
       2      0.070  3.5500000 
       3      0.170  3.1200000 
       4      0.076  3.5500000 
       5      0.076  3.5500000 
       6      0.000  0.0000000 
       7      0.030  2.5000000 
       8      0.030  2.5000000 
       9      0.030  2.5000000 

Bond Coeffs 

       1   570.0000     1.2290 
       2   450.0000     1.3640 
       3   410.0000     1.4440 
       4   549.0000     1.3400 
       5   553.0000     0.9450 
       6   340.0000     1.0800 
       7   340.0000     1.0800 
       8   340.0000     1.0800 

Angle Coeffs 

       1     80.000    121.000
       2     80.000    125.300
       3     85.000    120.700
       4     35.000    113.000
       5     35.000    119.700
       6     35.000    120.000
       7     35.000    120.000
       8     70.000    120.000
       9     35.000    120.000
      10     35.000    117.000

Dihedral Coeffs  

       1      2.500      6.000      0.000      0.000 
       2      0.000      5.500      0.000      0.000 
       3      0.000     14.000      0.000      0.000 
       4      1.500      5.500      0.000      0.000 
       5      0.000     14.000      0.000      0.000 
       6      0.000     14.000      0.000      0.000 
       7      0.000      0.000      0.000      0.000 
       8      3.200     -3.000      0.000      0.000 
       9      0.000     14.000      0.000      0.000 
      10      0.000      0.000      0.000      0.000 

Improper Coeffs 

       1     10.500      -1       2 
       2      2.500      -1       2 
       3      2.500      -1       2 

Atoms 

     1      1      1 -0.44450000   0.967037      1.001162      0.031484
     2      1      2 0.55380000   -0.234967      0.999754     -0.003442
     3      1      3 -0.55000000  -0.946579      1.000014      1.153945
     4      1      4 -0.28520000  -0.982482      0.998119     -1.294496
     5      1      5 -0.18140000  -2.304978      0.999903     -1.453491
     6      1      6 0.45520000   -1.894982      0.997729      0.979488
     7      1      7 0.17690000   -0.323039      0.995745     -2.154970
     8      1      8 0.13760000   -3.012783      1.002835     -0.628602
     9      1      9 0.13760000   -2.747226      0.998738     -2.442915

Bonds 

     1      1      2      1
     2      2      3      2
     3      3      4      2
     4      4      5      4
     5      5      6      3
     6      6      7      4
     7      7      8      5
     8      8      9      5

Angles 

     1      1      1      2      3
     2      2      1      2      4
     3      3      2      4      5
     4      4      2      3      6
     5      5      2      4      7
     6      6      4      5      8
     7      7      4      5      9
     8      8      3      2      4
     9      9      5      4      7
    10     10      8      5      9

Dihedrals

     1      1      5      4      2      1 
     2      2      6      3      2      1 
     3      3      8      5      4      2 
     4      4      6      3      2      4 
     5      5      9      5      4      7 
     6      6      9      5      4      2 
     7      7      7      4      2      3 
     8      8      5      4      2      3 
     9      9      8      5      4      7 
    10     10      7      4      2      1 

Impropers

     1      1      2      1      3      4 
     2      2      4      2      5      7 
     3      3      5      9      4      8 

