LAMMPS data file Created by LigParGen - (Written by Leela S. Dodda)

      10 atoms
       9 bonds
      12 angles
      12 dihedrals
       4 impropers
 
      10 atom types
       9 bond types
      12 angle types
      12 dihedral types
       4 improper types
 
   -2.128630    47.871370 xlo xhi
    0.997440    50.997440 ylo yhi
   -2.019980    47.980020 zlo zhi

Masses

       1     15.999  
       2     12.011  
       3     12.011  
       4     12.011  
       5     14.007  
       6      1.008  
       7      1.008  
       8      1.008  
       9      1.008  
      10      1.008  

Pair Coeffs 

       1      0.210  2.9600000 
       2      0.070  3.5500000 
       3      0.076  3.5500000 
       4      0.076  3.5500000 
       5      0.170  3.2500000 
       6      0.030  2.5000000 
       7      0.030  2.5000000 
       8      0.030  2.5000000 
       9      0.000  0.0000000 
      10      0.000  0.0000000 

Bond Coeffs 

       1   570.0000     1.2290 
       2   410.0000     1.4440 
       3   549.0000     1.3400 
       4   490.0000     1.3350 
       5   340.0000     1.0800 
       6   340.0000     1.0800 
       7   340.0000     1.0800 
       8   434.0000     1.0100 
       9   434.0000     1.0100 

Angle Coeffs 

       1     80.000    125.300
       2     85.000    120.700
       3     80.000    122.900
       4     35.000    119.700
       5     35.000    120.000
       6     35.000    120.000
       7     35.000    119.800
       8     35.000    119.800
       9     35.000    120.000
      10     35.000    117.000
      11     35.000    120.000
      12     70.000    115.500

Dihedral Coeffs  

       1      2.500      6.000      0.000      0.000 
       2      0.000     14.000      0.000      0.000 
       3      0.000      4.900      0.000      0.000 
       4      0.000     14.000      0.000      0.000 
       5      2.000      0.000      0.000      0.000 
       6      0.000     14.000      0.000      0.000 
       7      0.000      0.000      0.000      0.000 
       8      0.000      4.900      0.000      0.000 
       9      0.000      4.900      0.000      0.000 
      10      0.000      0.000      0.000      0.000 
      11      0.000      4.900      0.000      0.000 
      12      0.000     14.000      0.000      0.000 

Improper Coeffs 

       1     10.500      -1       2 
       2      2.500      -1       2 
       3      2.500      -1       2 
       4      2.500      -1       2 

Atoms 

     1      1      1 -0.44930000   1.003805      0.999526      0.006465  
     2      1      2 0.68360000   -0.215985      0.999316     -0.003846
     3      1      3 -0.26540000  -1.048314      0.999700      1.239083
     4      1      4 -0.14650000  -0.479484      1.000012      2.441927
     5      1      5 -1.32410000  -0.936063      0.999085     -1.168393
     6      1      6 0.14670000   -2.130036      0.999726      1.133082
     7      1      7 0.14500000    0.601697      1.000016      2.529324
     8      1      8 0.14500000   -1.069195      1.000274      3.350995
     9      1      9 0.53250000   -0.434618      0.997884     -2.042567
    10      1     10 0.53250000   -1.941807      0.997461     -1.183070

Bonds 

     1      1      2      1
     2      2      3      2
     3      3      4      3
     4      4      5      2
     5      5      6      3
     6      6      7      4
     7      7      8      4
     8      8      9      5
     9      9     10      5

Angles 

     1      1      1      2      3
     2      2      2      3      4
     3      3      1      2      5
     4      4      2      3      6
     5      5      3      4      7
     6      6      3      4      8
     7      7      2      5      9
     8      8      2      5     10
     9      9      9      5     10
    10     10      7      4      8
    11     11      4      3      6
    12     12      3      2      5

Dihedrals

     1      1      4      3      2      1 
     2      2      7      4      3      2 
     3      3      9      5      2      1 
     4      4      8      4      3      2 
     5      5      5      2      3      4 
     6      6      7      4      3      6 
     7      7      6      3      2      5 
     8      8     10      5      2      3 
     9      9      9      5      2      3 
    10     10      6      3      2      1 
    11     11     10      5      2      1 
    12     12      8      4      3      6 

Impropers

     1      1      2      1      3      5 
     2      2      3      2      4      6 
     3      3      4      3      7      8 
     4      4      5      9     10      2 

