LAMMPS data file Created by LigParGen - (Written by Leela S. Dodda)

      12 atoms
      11 bonds
      16 angles
      16 dihedrals
       5 impropers
 
      12 atom types
      11 bond types
      16 angle types
      16 dihedral types
       5 improper types
 
   -2.769240    47.230760 xlo xhi
    0.108100    50.108100 ylo yhi
   -2.392660    47.607340 zlo zhi

Masses

       1     12.011  
       2     12.011  
       3     12.011  
       4     12.011  
       5     15.999  
       6     15.999  
       7      1.008  
       8      1.008  
       9      1.008  
      10      1.008  
      11      1.008  
      12      1.008  

Pair Coeffs 

       1      0.076  3.5500000 
       2      0.076  3.5500000 
       3      0.066  3.5000000 
       4      0.070  3.5500000 
       5      0.210  2.9600000 
       6      0.170  3.1200000 
       7      0.030  2.5000000 
       8      0.030  2.5000000 
       9      0.030  2.5000000 
      10      0.030  2.5000000 
      11      0.030  2.5000000 
      12      0.000  0.0000000 

Bond Coeffs 

       1   549.0000     1.3400 
       2   317.0000     1.5100 
       3   410.0000     1.4440 
       4   570.0000     1.2290 
       5   450.0000     1.3640 
       6   340.0000     1.0800 
       7   340.0000     1.0800 
       8   340.0000     1.0900 
       9   340.0000     1.0900 
      10   340.0000     1.0900 
      11   553.0000     0.9450 

Angle Coeffs 

       1     70.000    124.000
       2     85.000    120.700
       3     80.000    125.300
       4     70.000    120.000
       5     35.000    120.000
       6     35.000    120.000
       7     35.000    109.500
       8     35.000    109.500
       9     35.000    109.500
      10     35.000    113.000
      11     33.000    107.800
      12     80.000    121.000
      13     70.000    119.700
      14     35.000    117.000
      15     33.000    107.800
      16     33.000    107.800

Dihedral Coeffs  

       1      2.500      6.000      0.000      0.000 
       2      0.000     14.000      0.000      0.000 
       3      0.000      0.000     -0.372      0.000 
       4      1.500      5.500      0.000      0.000 
       5      0.000      5.500      0.000      0.000 
       6      0.000      0.000     -0.372      0.000 
       7      0.000      0.000     -0.372      0.000 
       8      0.000      0.000     -0.372      0.000 
       9      3.200     -3.000      0.000      0.000 
      10      0.000      0.000     -0.372      0.000 
      11      0.000     14.000      0.000      0.000 
      12      0.000     14.000      0.000      0.000 
      13      0.000      0.000     -0.372      0.000 
      14      0.000     14.000      0.000      0.000 
      15      0.900      0.230     -0.505      0.000 
      16      0.900      0.230     -0.505      0.000 

Improper Coeffs 

       1      2.500      -1       2 
       2     10.500      -1       2 
       3      2.500      -1       2 
       4      0.000      -1       2 
       5      0.000      -1       2 

Atoms 

     1      1      1 -0.13710000    1.000  1.00000  0.00000
     2      1      2 -0.25550000   -0.345  1.00000  0.00000
     3      1      3 -0.20820000   -1.122  1.00000  1.27794
     4      1      4 0.51530000   -1.018  0.99832 -1.33038
     5      1      5 -0.40800000   -0.415  0.99698 -2.39266
     6      1      6 -0.56040000   -2.364  0.99993 -1.28101
     7      1      7 0.14880000    1.571  1.00000  0.92275
     8      1      8 0.14880000    1.572  0.99883 -0.92595
     9      1      9 0.09900000   -0.465  1.00000  2.15533
    10      1     10 0.09900000   -1.753  0.10810  1.34562
    11      1     11 0.09900000   -1.753  1.89230  1.34458
    12      1     12 0.45940000   -2.769  1.00200 -0.39893

Bonds 

     1      1      2      1
     2      2      3      2
     3      3      4      2
     4      4      5      4
     5      5      6      4
     6      6      7      1
     7      7      8      1
     8      8      9      3
     9      9     10      3
    10     10     11      3
    11     11     12      6

Angles 

     1      1      1      2      3
     2      2      1      2      4
     3      3      2      4      5
     4      4      2      4      6
     5      5      2      1      7
     6      6      2      1      8
     7      7      2      3      9
     8      8      2      3     10
     9      9      2      3     11
    10     10      4      6     12
    11     11      9      3     10
    12     12      5      4      6
    13     13      3      2      4
    14     14      7      1      8
    15     15     10      3     11
    16     16      9      3     11

Dihedrals

     1      1      5      4      2      1 
     2      2      7      1      2      3 
     3      3      9      3      2      1 
     4      4     12      6      4      2 
     5      5     12      6      4      5 
     6      6      9      3      2      4 
     7      7     11      3      2      1 
     8      8     10      3      2      1 
     9      9      6      4      2      1 
    10     10     11      3      2      4 
    11     11      8      1      2      4 
    12     12      8      1      2      3 
    13     13     10      3      2      4 
    14     14      7      1      2      4 
    15     15      5      4      2      3 
    16     16      6      4      2      3 

Impropers

     1      1      2      1      3      4 
     2      2      4      2      5      6 
     3      3      1      2      7      8 
     4      4      3      9     10      2 
     5      5      3      9      2     11 

