LAMMPS data file Created by LigParGen - (Written by Leela S. Dodda)

     138 atoms
     140 bonds
     252 angles
     389 dihedrals
      79 impropers
 
     138 atom types
     140 bond types
     252 angle types
     389 dihedral types
      79 improper types
 
  -16.561270    33.438730 xlo xhi
  -10.293330    39.706670 ylo yhi
   -6.481380    43.518620 zlo zhi

Masses

       1     12.011  
       2     12.011  
       3     12.011  
       4     12.011  
       5     12.011  
       6     12.011  
       7     12.011  
       8     12.011  
       9     12.011  
      10     12.011  
      11     12.011  
      12     12.011  
      13     12.011  
      14     12.011  
      15     12.011  
      16     12.011  
      17     12.011  
      18     12.011  
      19     12.011  
      20     12.011  
      21     12.011  
      22     12.011  
      23     12.011  
      24     15.999  
      25     12.011  
      26     12.011  
      27     12.011  
      28     12.011  
      29     12.011  
      30     12.011  
      31     12.011  
      32     12.011  
      33     12.011  
      34     12.011  
      35     12.011  
      36     12.011  
      37     15.999  
      38     15.999  
      39     12.011  
      40     12.011  
      41     12.011  
      42     15.999  
      43     12.011  
      44     12.011  
      45     15.999  
      46     15.999  
      47     15.999  
      48     15.999  
      49     15.999  
      50     15.999  
      51     15.999  
      52     12.011  
      53     15.999  
      54     15.999  
      55     15.999  
      56     12.011  
      57     12.011  
      58     12.011  
      59     12.011  
      60     12.011  
      61     15.999  
      62     12.011  
      63     15.999  
      64     14.007  
      65     15.999  
      66      1.008  
      67      1.008  
      68      1.008  
      69      1.008  
      70      1.008  
      71      1.008  
      72      1.008  
      73      1.008  
      74      1.008  
      75      1.008  
      76      1.008  
      77      1.008  
      78      1.008  
      79      1.008  
      80      1.008  
      81      1.008  
      82      1.008  
      83      1.008  
      84      1.008  
      85      1.008  
      86      1.008  
      87      1.008  
      88      1.008  
      89      1.008  
      90      1.008  
      91      1.008  
      92      1.008  
      93      1.008  
      94      1.008  
      95      1.008  
      96      1.008  
      97      1.008  
      98      1.008  
      99      1.008  
     100      1.008  
     101      1.008  
     102      1.008  
     103      1.008  
     104      1.008  
     105      1.008  
     106      1.008  
     107      1.008  
     108      1.008  
     109      1.008  
     110      1.008  
     111      1.008  
     112      1.008  
     113      1.008  
     114      1.008  
     115      1.008  
     116      1.008  
     117      1.008  
     118      1.008  
     119      1.008  
     120      1.008  
     121      1.008  
     122      1.008  
     123      1.008  
     124      1.008  
     125      1.008  
     126      1.008  
     127      1.008  
     128      1.008  
     129      1.008  
     130      1.008  
     131      1.008  
     132      1.008  
     133      1.008  
     134      1.008  
     135      1.008  
     136      1.008  
     137      1.008  
     138      1.008  

Pair Coeffs 

       1      0.066  3.5000000 
       2      0.066  3.5000000 
       3      0.076  3.5500000 
       4      0.076  3.5500000 
       5      0.076  3.5500000 
       6      0.076  3.5500000 
       7      0.076  3.5500000 
       8      0.076  3.5500000 
       9      0.076  3.5500000 
      10      0.076  3.5500000 
      11      0.076  3.5500000 
      12      0.076  3.5500000 
      13      0.076  3.5500000 
      14      0.076  3.5500000 
      15      0.076  3.5500000 
      16      0.076  3.5500000 
      17      0.066  3.5000000 
      18      0.066  3.5000000 
      19      0.066  3.5000000 
      20      0.066  3.5000000 
      21      0.066  3.5000000 
      22      0.066  3.5000000 
      23      0.066  3.5000000 
      24      0.140  2.9000000 
      25      0.066  3.5000000 
      26      0.066  3.5000000 
      27      0.066  3.5000000 
      28      0.066  3.5000000 
      29      0.066  3.5000000 
      30      0.066  3.5000000 
      31      0.066  3.5000000 
      32      0.066  3.5000000 
      33      0.066  3.5000000 
      34      0.066  3.5000000 
      35      0.066  3.5000000 
      36      0.070  3.5500000 
      37      0.210  2.9600000 
      38      0.140  2.9000000 
      39      0.066  3.5000000 
      40      0.066  3.5000000 
      41      0.066  3.5000000 
      42      0.170  3.1200000 
      43      0.066  3.5000000 
      44      0.066  3.5000000 
      45      0.170  3.1200000 
      46      0.170  3.1200000 
      47      0.170  3.1200000 
      48      0.170  3.1200000 
      49      0.170  3.1200000 
      50      0.170  3.1200000 
      51      0.170  3.1200000 
      52      0.070  3.5500000 
      53      0.210  2.9600000 
      54      0.170  3.1200000 
      55      0.140  2.9000000 
      56      0.066  3.5000000 
      57      0.066  3.5000000 
      58      0.066  3.5000000 
      59      0.066  3.5000000 
      60      0.066  3.5000000 
      61      0.140  2.9000000 
      62      0.066  3.5000000 
      63      0.170  3.1200000 
      64      0.170  3.3000000 
      65      0.170  3.1200000 
      66      0.030  2.5000000 
      67      0.030  2.5000000 
      68      0.030  2.5000000 
      69      0.030  2.5000000 
      70      0.030  2.5000000 
      71      0.030  2.5000000 
      72      0.030  2.5000000 
      73      0.030  2.5000000 
      74      0.030  2.5000000 
      75      0.030  2.5000000 
      76      0.030  2.5000000 
      77      0.030  2.5000000 
      78      0.030  2.5000000 
      79      0.030  2.5000000 
      80      0.030  2.5000000 
      81      0.030  2.5000000 
      82      0.030  2.5000000 
      83      0.030  2.5000000 
      84      0.030  2.5000000 
      85      0.030  2.5000000 
      86      0.030  2.5000000 
      87      0.030  2.5000000 
      88      0.030  2.5000000 
      89      0.030  2.5000000 
      90      0.030  2.5000000 
      91      0.030  2.5000000 
      92      0.030  2.5000000 
      93      0.030  2.5000000 
      94      0.030  2.5000000 
      95      0.030  2.5000000 
      96      0.030  2.5000000 
      97      0.030  2.5000000 
      98      0.030  2.5000000 
      99      0.030  2.5000000 
     100      0.030  2.5000000 
     101      0.030  2.5000000 
     102      0.030  2.5000000 
     103      0.030  2.5000000 
     104      0.030  2.5000000 
     105      0.030  2.5000000 
     106      0.030  2.5000000 
     107      0.030  2.5000000 
     108      0.030  2.5000000 
     109      0.030  2.5000000 
     110      0.030  2.5000000 
     111      0.030  2.5000000 
     112      0.000  0.0000000 
     113      0.030  2.5000000 
     114      0.030  2.5000000 
     115      0.030  2.5000000 
     116      0.030  2.5000000 
     117      0.030  2.5000000 
     118      0.030  2.5000000 
     119      0.000  0.0000000 
     120      0.000  0.0000000 
     121      0.000  0.0000000 
     122      0.000  0.0000000 
     123      0.000  0.0000000 
     124      0.000  0.0000000 
     125      0.000  0.0000000 
     126      0.000  0.0000000 
     127      0.030  2.5000000 
     128      0.030  2.5000000 
     129      0.030  2.5000000 
     130      0.030  2.5000000 
     131      0.030  2.5000000 
     132      0.030  2.5000000 
     133      0.030  2.5000000 
     134      0.030  2.5000000 
     135      0.000  0.0000000 
     136      0.000  0.0000000 
     137      0.000  0.0000000 
     138      0.000  0.0000000 

Bond Coeffs 

       1   268.0000     1.5290 
       2   317.0000     1.5100 
       3   549.0000     1.3400 
       4   385.0000     1.4600 
       5   549.0000     1.3450 
       6   549.0000     1.3450 
       7   549.0000     1.3450 
       8   549.0000     1.3450 
       9   549.0000     1.3450 
      10   549.0000     1.3450 
      11   549.0000     1.3450 
      12   549.0000     1.3450 
      13   549.0000     1.3450 
      14   385.0000     1.4600 
      15   549.0000     1.3400 
      16   317.0000     1.5100 
      17   268.0000     1.5290 
      18   268.0000     1.5290 
      19   268.0000     1.5290 
      20   268.0000     1.5290 
      21   268.0000     1.5290 
      22   268.0000     1.5290 
      23   320.0000     1.4100 
      24   268.0000     1.5290 
      25   268.0000     1.5290 
      26   268.0000     1.5290 
      27   268.0000     1.5290 
      28   268.0000     1.5290 
      29   268.0000     1.5290 
      30   268.0000     1.5290 
      31   268.0000     1.5290 
      32   268.0000     1.5290 
      33   268.0000     1.5290 
      34   268.0000     1.5290 
      35   317.0000     1.5220 
      36   570.0000     1.2290 
      37   214.0000     1.3270 
      38   320.0000     1.4100 
      39   268.0000     1.5290 
      40   268.0000     1.5290 
      41   320.0000     1.4100 
      42   268.0000     1.5290 
      43   268.0000     1.5290 
      44   320.0000     1.4100 
      45   320.0000     1.4100 
      46   320.0000     1.4100 
      47   320.0000     1.4100 
      48   320.0000     1.4100 
      49   320.0000     1.3800 
      50   320.0000     1.4100 
      51   317.0000     1.5220 
      52   570.0000     1.2290 
      53   450.0000     1.3640 
      54   320.0000     1.4100 
      55   320.0000     1.3800 
      56   268.0000     1.5290 
      57   268.0000     1.5290 
      58   268.0000     1.5290 
      59   268.0000     1.5290 
      60   320.0000     1.3800 
      61   268.0000     1.5290 
      62   320.0000     1.4100 
      63   382.0000     1.4480 
      64   320.0000     1.4100 
      65   340.0000     1.0900 
      66   340.0000     1.0900 
      67   340.0000     1.0900 
      68   340.0000     1.0900 
      69   340.0000     1.0800 
      70   340.0000     1.0800 
      71   340.0000     1.0800 
      72   340.0000     1.0800 
      73   340.0000     1.0800 
      74   340.0000     1.0800 
      75   340.0000     1.0800 
      76   340.0000     1.0800 
      77   340.0000     1.0800 
      78   340.0000     1.0800 
      79   340.0000     1.0800 
      80   340.0000     1.0800 
      81   340.0000     1.0800 
      82   340.0000     1.0800 
      83   340.0000     1.0900 
      84   340.0000     1.0900 
      85   340.0000     1.0900 
      86   340.0000     1.0900 
      87   340.0000     1.0900 
      88   340.0000     1.0900 
      89   340.0000     1.0900 
      90   340.0000     1.0900 
      91   340.0000     1.0900 
      92   340.0000     1.0900 
      93   340.0000     1.0900 
      94   340.0000     1.0900 
      95   340.0000     1.0900 
      96   340.0000     1.0900 
      97   340.0000     1.0900 
      98   340.0000     1.0900 
      99   340.0000     1.0900 
     100   340.0000     1.0900 
     101   340.0000     1.0900 
     102   340.0000     1.0900 
     103   340.0000     1.0900 
     104   340.0000     1.0900 
     105   340.0000     1.0900 
     106   340.0000     1.0900 
     107   340.0000     1.0900 
     108   340.0000     1.0900 
     109   340.0000     1.0900 
     110   340.0000     1.0900 
     111   553.0000     0.9450 
     112   340.0000     1.0900 
     113   340.0000     1.0900 
     114   340.0000     1.0900 
     115   340.0000     1.0900 
     116   340.0000     1.0900 
     117   340.0000     1.0900 
     118   553.0000     0.9450 
     119   553.0000     0.9450 
     120   553.0000     0.9450 
     121   553.0000     0.9450 
     122   553.0000     0.9450 
     123   553.0000     0.9450 
     124   553.0000     0.9450 
     125   553.0000     0.9450 
     126   340.0000     1.0900 
     127   340.0000     1.0900 
     128   340.0000     1.0900 
     129   340.0000     1.0900 
     130   340.0000     1.0900 
     131   340.0000     1.0900 
     132   340.0000     1.0900 
     133   340.0000     1.0900 
     134   553.0000     0.9450 
     135   434.0000     1.0100 
     136   434.0000     1.0100 
     137   553.0000     0.9450 
     138   320.0000     1.3800 
     139   268.0000     1.5290 
     140   320.0000     1.4100 

Angle Coeffs 

       1     63.000    111.100
       2     70.000    124.000
       3     70.000    124.000
       4     70.000    124.000
       5     70.000    124.000
       6     70.000    124.000
       7     70.000    124.000
       8     70.000    124.000
       9     70.000    124.000
      10     70.000    124.000
      11     70.000    124.000
      12     70.000    124.000
      13     70.000    124.000
      14     70.000    124.000
      15     70.000    124.000
      16     63.000    111.100
      17     58.350    112.700
      18     58.350    112.700
      19     58.350    112.700
      20     58.350    112.700
      21     58.350    112.700
      22     50.000    109.500
      23     58.350    112.700
      24     58.350    112.700
      25     58.350    112.700
      26     58.350    112.700
      27     58.350    112.700
      28     58.350    112.700
      29     58.350    112.700
      30     58.350    112.700
      31     58.350    112.700
      32     58.350    112.700
      33     58.350    112.700
      34     63.000    111.100
      35     80.000    120.400
      36     81.000    111.400
      37     83.000    116.900
      38     50.000    109.500
      39     58.350    112.700
      40     50.000    109.500
      41     58.350    112.700
      42     50.000    109.500
      43     50.000    109.500
      44     50.000    109.500
      45     50.000    109.500
      46     50.000    109.500
      47     50.000    109.500
      48     50.000    109.500
      49     50.000    109.500
      50     63.000    111.100
      51     80.000    120.400
      52     70.000    108.000
      53     50.000    109.500
      54     60.000    109.500
      55     50.000    109.500
      56     58.350    112.700
      57     58.350    112.700
      58     58.350    112.700
      59     92.600    111.550
      60     58.350    112.700
      61     50.000    109.500
      62     56.200    109.470
      63     50.000    109.500
      64     37.500    110.700
      65     37.500    110.700
      66     37.500    110.700
      67     37.500    110.700
      68     35.000    117.000
      69     35.000    120.000
      70     35.000    120.000
      71     35.000    120.000
      72     35.000    120.000
      73     35.000    120.000
      74     35.000    120.000
      75     35.000    120.000
      76     35.000    120.000
      77     35.000    120.000
      78     35.000    120.000
      79     35.000    120.000
      80     35.000    120.000
      81     35.000    120.000
      82     35.000    109.500
      83     37.500    110.700
      84     37.500    110.700
      85     37.500    110.700
      86     37.500    110.700
      87     37.500    110.700
      88     37.500    110.700
      89     37.500    110.700
      90     37.500    110.700
      91     37.500    110.700
      92     37.500    110.700
      93     37.500    110.700
      94     37.500    110.700
      95     37.500    110.700
      96     37.500    110.700
      97     37.500    110.700
      98     37.500    110.700
      99     37.500    110.700
     100     37.500    110.700
     101     37.500    110.700
     102     37.500    110.700
     103     37.500    110.700
     104     37.500    110.700
     105     37.500    110.700
     106     37.500    110.700
     107     35.000    109.500
     108     37.500    110.700
     109     37.500    110.700
     110     55.000    108.500
     111     37.500    110.700
     112     37.500    110.700
     113     37.500    110.700
     114     37.500    110.700
     115     37.500    110.700
     116     37.500    110.700
     117     55.000    108.500
     118     55.000    108.500
     119     55.000    108.500
     120     55.000    108.500
     121     55.000    108.500
     122     55.000    108.500
     123     55.000    108.500
     124     35.000    113.000
     125     35.000    109.500
     126     37.500    110.700
     127     37.500    110.700
     128     37.500    110.700
     129     37.500    110.700
     130     37.500    110.700
     131     37.500    110.700
     132     37.500    110.700
     133     55.000    108.500
     134     35.000    109.500
     135     35.000    109.500
     136     55.000    108.500
     137     50.000    109.500
     138     50.000    109.500
     139     35.000    109.500
     140     50.000    109.500
     141     50.000    109.500
     142     33.000    107.800
     143     35.000    109.500
     144     50.000    109.500
     145     37.500    110.700
     146     35.000    109.500
     147     37.500    110.700
     148     35.000    120.000
     149     37.500    110.700
     150     37.500    110.700
     151     50.000    109.500
     152     50.000    109.500
     153     37.500    110.700
     154     80.000    121.000
     155     37.500    110.700
     156     35.000    109.500
     157     37.500    110.700
     158     37.500    110.700
     159     63.000    111.100
     160     33.000    107.800
     161     35.000    120.000
     162     37.500    110.700
     163     37.500    110.700
     164     35.000    109.500
     165     37.500    110.700
     166     37.500    110.700
     167     37.500    110.700
     168     63.000    111.100
     169     33.000    107.800
     170     35.000    109.500
     171     50.000    109.500
     172     37.500    110.700
     173     50.000    109.500
     174     58.350    112.700
     175     35.000    109.500
     176     56.200    109.470
     177     37.500    110.700
     178     35.000    120.000
     179     37.500    110.700
     180     37.500    110.700
     181     35.000    109.500
     182     83.000    123.400
     183     60.000    109.500
     184     33.000    107.800
     185     37.500    110.700
     186     37.500    110.700
     187     35.000    109.500
     188     50.000    109.500
     189     37.500    110.700
     190     35.000    120.000
     191     35.000    109.500
     192     37.500    110.700
     193     37.500    110.700
     194     33.000    107.800
     195     50.000    109.500
     196     50.000    109.500
     197     33.000    107.800
     198     37.500    110.700
     199     37.500    110.700
     200     37.500    110.700
     201     43.600    106.400
     202     35.000    109.500
     203     92.600    111.550
     204     35.000    109.500
     205     35.000    120.000
     206     35.000    120.000
     207     35.000    120.000
     208     58.350    112.700
     209     50.000    109.500
     210     33.000    107.800
     211     35.000    109.500
     212     33.000    107.800
     213     33.000    107.800
     214     37.500    110.700
     215     37.500    110.700
     216     37.500    110.700
     217     60.000    109.500
     218     33.000    107.800
     219     58.350    112.700
     220     35.000    120.000
     221     50.000    109.500
     222     35.000    120.000
     223     35.000    117.000
     224     37.500    110.700
     225     33.000    107.800
     226     50.000    109.500
     227     37.500    110.700
     228     35.000    109.500
     229     33.000    107.800
     230     50.000    109.500
     231     35.000    109.500
     232     33.000    107.800
     233     33.000    107.800
     234     33.000    107.800
     235     35.000    120.000
     236     33.000    107.800
     237     35.000    120.000
     238     35.000    120.000
     239     35.000    109.500
     240     33.000    107.800
     241     37.500    110.700
     242     50.000    109.500
     243     58.350    112.700
     244     35.000    109.500
     245     37.500    110.700
     246     33.000    107.800
     247     33.000    107.800
     248     35.000    109.500
     249     37.500    110.700
     250     35.000    120.000
     251     33.000    107.800
     252     37.500    110.700

Dihedral Coeffs  

       1      0.346      0.405     -0.904      0.000 
       2      0.000     14.000      0.000      0.000 
       3      1.423      4.055      0.858      0.000 
       4      0.000     14.000      0.000      0.000 
       5      1.423      4.055      0.858      0.000 
       6      1.423      4.055      0.858      0.000 
       7      1.423      4.055      0.858      0.000 
       8      1.423      4.055      0.858      0.000 
       9      1.423      4.055      0.858      0.000 
      10      1.423      4.055      0.858      0.000 
      11      1.423      4.055      0.858      0.000 
      12      0.000     14.000      0.000      0.000 
      13      1.423      4.055      0.858      0.000 
      14      0.000     14.000      0.000      0.000 
      15      0.346      0.405     -0.904      0.000 
      16      1.300     -0.200      0.200      0.000 
      17      1.300     -0.200      0.200      0.000 
      18      1.300     -0.200      0.200      0.000 
      19      1.300     -0.200      0.200      0.000 
      20      1.300     -0.200      0.200      0.000 
      21      1.300     -0.200      0.200      0.000 
      22      1.300     -0.200      0.200      0.000 
      23      1.300     -0.200      0.200      0.000 
      24      1.300     -0.200      0.200      0.000 
      25      1.300     -0.200      0.200      0.000 
      26      1.300     -0.200      0.200      0.000 
      27      1.300     -0.200      0.200      0.000 
      28      1.300     -0.200      0.200      0.000 
      29      1.300     -0.200      0.200      0.000 
      30      1.300     -0.200      0.200      0.000 
      31     -2.060     -0.313      0.315      0.000 
      32      0.000      0.000      0.000      0.000 
      33      4.669      5.124      0.000      0.000 
      34     -1.220     -0.126      0.422      0.000 
      35      0.000      0.000      0.000      0.000 
      36      0.650     -0.250      0.670      0.000 
      37      0.650     -0.250      0.670      0.000 
      38      1.711     -0.500      0.663      0.000 
      39      1.300     -0.200      0.200      0.000 
      40      1.300     -0.200      0.200      0.000 
      41      0.000      0.000      0.366      0.000 
      42     -0.356     -0.174      0.492      0.000 
      43      0.000      0.000      0.300      0.000 
      44      0.000      0.000      0.468      0.000 
      45     -0.356     -0.174      0.492      0.000 
      46     -0.356     -0.174      0.492      0.000 
      47     -0.356     -0.174      0.492      0.000 
      48     -0.356     -0.174      0.492      0.000 
      49     -0.356     -0.174      0.492      0.000 
      50     -0.356     -0.174      0.492      0.000 
      51     -0.356     -0.174      0.492      0.000 
      52      1.500      5.500      0.000      0.000 
      53      0.000      0.000      0.300      0.000 
      54     -0.356     -0.174      0.492      0.000 
      55     -0.190     -0.417      0.418      0.000 
      56     -0.356     -0.174      0.492      0.000 
      57      0.000      0.000      0.300      0.000 
      58      0.000      0.000      0.366      0.000 
      59      0.000      0.000      0.468      0.000 
      60      0.000      0.000      0.300      0.000 
      61      0.000      0.000      0.000      0.000 
      62      0.000     14.000      0.000      0.000 
      63      0.000      0.000      0.318      0.000 
      64      0.000      0.000      0.300      0.000 
      65      0.000      0.000      0.300      0.000 
      66      0.000      0.000      0.300      0.000 
      67      0.000      0.000      0.352      0.000 
      68      0.000      0.000      0.300      0.000 
      69      0.000      0.000      0.300      0.000 
      70      2.392     -0.674      0.550      0.000 
      71      0.000      0.000      0.468      0.000 
      72     -1.552      0.000      0.000      0.000 
      73      0.650     -0.250      0.670      0.000 
      74      0.000     14.000      0.000      0.000 
      75      0.000      0.000      0.318      0.000 
      76      0.000      0.000     -0.553      0.000 
      77      0.000      0.000      0.300      0.000 
      78     -2.060     -0.313      0.315      0.000 
      79      0.000      0.000      0.300      0.000 
      80      0.000      0.000      0.300      0.000 
      81      1.300     -0.200      0.200      0.000 
      82     -0.190     -0.417      0.418      0.000 
      83      0.000      0.000      0.300      0.000 
      84      0.000     14.000      0.000      0.000 
      85      1.300     -0.200      0.200      0.000 
      86      0.000     14.000      0.000      0.000 
      87     -1.552      0.000      0.000      0.000 
      88      0.000      0.000      0.300      0.000 
      89      0.000      0.000      0.300      0.000 
      90      0.000     14.000      0.000      0.000 
      91      1.000      0.546      0.450      0.000 
      92      0.000      0.000      0.300      0.000 
      93      0.000      0.000      0.300      0.000 
      94      1.711     -0.500      0.663      0.000 
      95      0.000      0.000      0.300      0.000 
      96      0.000      0.000      0.300      0.000 
      97      4.319      0.000      0.000      0.000 
      98      0.000      0.000     -0.372      0.000 
      99      0.000      0.000      0.468      0.000 
     100      0.000      0.000      0.300      0.000 
     101      0.000      0.000      0.468      0.000 
     102      0.000      0.000      0.300      0.000 
     103      0.346      0.405     -0.904      0.000 
     104      0.000     14.000      0.000      0.000 
     105      0.000      0.000      0.300      0.000 
     106      1.711     -0.500      0.663      0.000 
     107      0.000      0.000      0.300      0.000 
     108      0.000      0.000      0.468      0.000 
     109     -1.552      0.000      0.000      0.000 
     110      0.000     14.000      0.000      0.000 
     111      0.000      0.000      0.300      0.000 
     112      0.000      0.000      0.300      0.000 
     113     -1.552      0.000      0.000      0.000 
     114      0.000      0.000      0.300      0.000 
     115      0.000      0.000      0.468      0.000 
     116      0.000      0.000      0.300      0.000 
     117      0.000      0.000      0.468      0.000 
     118      0.000     14.000      0.000      0.000 
     119      0.000      0.000      0.468      0.000 
     120      0.000      0.000      0.000      0.000 
     121      0.000     14.000      0.000      0.000 
     122      0.000      0.000      0.300      0.000 
     123      0.000      0.000      0.300      0.000 
     124      0.000      0.000      0.300      0.000 
     125      0.000      0.000      0.300      0.000 
     126      0.000      0.000      0.132      0.000 
     127      0.000      0.000      0.300      0.000 
     128      0.000      0.000      0.760      0.000 
     129      0.000      0.000      0.300      0.000 
     130     -1.552      0.000      0.000      0.000 
     131      0.000      0.000      0.300      0.000 
     132     -6.180      0.000      0.000      0.000 
     133      0.000      0.000      0.468      0.000 
     134      0.000      0.000      0.468      0.000 
     135      0.000      0.000      0.300      0.000 
     136      0.000      0.000      0.300      0.000 
     137      0.000      0.000      0.352      0.000 
     138     -0.356     -0.174      0.492      0.000 
     139      0.000      0.000      0.468      0.000 
     140      0.000      0.000      0.352      0.000 
     141      0.000      0.000      0.300      0.000 
     142      0.000      0.000      0.300      0.000 
     143      0.000      0.000      0.300      0.000 
     144      0.000      0.000      0.300      0.000 
     145      0.650     -0.250      0.670      0.000 
     146      1.711     -0.500      0.663      0.000 
     147      0.000      0.000      0.468      0.000 
     148      0.000     14.000      0.000      0.000 
     149     -0.356     -0.174      0.492      0.000 
     150      0.000     -8.000      0.000      0.000 
     151      0.000     14.000      0.000      0.000 
     152      0.000      0.000      0.468      0.000 
     153     -0.356     -0.174      0.492      0.000 
     154     -1.552      0.000      0.000      0.000 
     155      0.000      0.000     -0.372      0.000 
     156      1.711     -0.500      0.663      0.000 
     157      0.000      0.000      0.300      0.000 
     158      0.000     14.000      0.000      0.000 
     159      0.650     -0.250      0.670      0.000 
     160      0.000      0.000      0.468      0.000 
     161      0.000      0.000      0.300      0.000 
     162      0.000      0.000      0.300      0.000 
     163      1.000      0.546      0.450      0.000 
     164      0.000      0.000      0.300      0.000 
     165      0.000      0.000      0.468      0.000 
     166      0.000      0.000      0.300      0.000 
     167      0.000      0.000      0.468      0.000 
     168      0.000      0.000      0.300      0.000 
     169      0.000      0.000      0.300      0.000 
     170      0.000     14.000      0.000      0.000 
     171      0.000      0.000      0.300      0.000 
     172      0.000      0.000      0.468      0.000 
     173      0.000      0.000      0.300      0.000 
     174      1.300     -0.200      0.200      0.000 
     175      0.000     14.000      0.000      0.000 
     176      0.000      0.000      0.468      0.000 
     177     -0.356     -0.174      0.492      0.000 
     178      0.500      0.000      0.000      0.000 
     179     -1.552      0.000      0.000      0.000 
     180      0.000      0.000      0.300      0.000 
     181      0.000      0.000      0.366      0.000 