LAMMPS data file Created by LigParGen - (Written by Leela S. Dodda)

     138 atoms
     140 bonds
     252 angles
     389 dihedrals
      79 impropers
 
     138 atom types
     140 bond types
     252 angle types
     389 dihedral types
      79 improper types
 
  -17.008050    32.991950 xlo xhi
   -0.449040    49.550960 ylo yhi
  -13.429490    36.570510 zlo zhi

Masses

       1      1.008  
       2     15.999  
       3     12.011  
       4     12.011  
       5     15.999  
       6      1.008  
       7     12.011  
       8     12.011  
       9      1.008  
      10     15.999  
      11     12.011  
      12      1.008  
      13     15.999  
      14     12.011  
      15      1.008  
      16      1.008  
      17      1.008  
      18     12.011  
      19      1.008  
      20      1.008  
      21     12.011  
      22     15.999  
      23     12.011  
      24      1.008  
      25     15.999  
      26     12.011  
      27      1.008  
      28      1.008  
      29      1.008  
      30     12.011  
      31     12.011  
      32      1.008  
      33     12.011  
      34      1.008  
      35     15.999  
      36     12.011  
      37      1.008  
      38     15.999  
      39     12.011  
      40      1.008  
      41     12.011  
      42      1.008  
      43      1.008  
      44      1.008  
      45     12.011  
      46     12.011  
      47      1.008  
      48     15.999  
      49     12.011  
      50      1.008  
      51     12.011  
      52      1.008  
      53     15.999  
      54     12.011  
      55      1.008  
      56     12.011  
      57     12.011  
      58      1.008  
      59      1.008  
      60     14.007  
      61      1.008  
      62     12.011  
      63      1.008  
      64      1.008  
      65     15.999  
      66     12.011  
      67      1.008  
      68      1.008  
      69      1.008  
      70      1.008  
      71     15.999  
      72      1.008  
      73      1.008  
      74      1.008  
      75     12.011  
      76      1.008  
      77      1.008  
      78      1.008  
      79     12.011  
      80      1.008  
      81      1.008  
      82     12.011  
      83      1.008  
      84      1.008  
      85     12.011  
      86      1.008  
      87     12.011  
      88      1.008  
      89     15.999  
      90     12.011  
      91      1.008  
      92     12.011  
      93      1.008  
      94      1.008  
      95      1.008  
      96     12.011  
      97      1.008  
      98     12.011  
      99      1.008  
     100     15.999  
     101     12.011  
     102      1.008  
     103     12.011  
     104      1.008  
     105      1.008  
     106      1.008  
     107     12.011  
     108      1.008  
     109     12.011  
     110     15.999  
     111     15.999  
     112      1.008  
     113     12.011  
     114     12.011  
     115      1.008  
     116     12.011  
     117      1.008  
     118     12.011  
     119     12.011  
     120      1.008  
     121     12.011  
     122      1.008  
     123      1.008  
     124      1.008  
     125      1.008  
     126     12.011  
     127     12.011  
     128      1.008  
     129     12.011  
     130      1.008  
     131      1.008  
     132      1.008  
     133      1.008  
     134     15.999  
     135      1.008  
     136      1.008  
     137      1.008  
     138      1.008  

Pair Coeffs 

       1      0.000  0.0000000 
       2      0.170  3.1200000 
       3      0.070  3.5500000 
       4      0.066  3.5000000 
       5      0.210  2.9600000 
       6      0.030  2.5000000 
       7      0.066  3.5000000 
       8      0.066  3.5000000 
       9      0.030  2.5000000 
      10      0.170  3.1200000 
      11      0.066  3.5000000 
      12      0.030  2.5000000 
      13      0.140  2.9000000 
      14      0.066  3.5000000 
      15      0.000  0.0000000 
      16      0.030  2.5000000 
      17      0.030  2.5000000 
      18      0.066  3.5000000 
      19      0.030  2.5000000 
      20      0.030  2.5000000 
      21      0.066  3.5000000 
      22      0.170  3.1200000 
      23      0.066  3.5000000 
      24      0.030  2.5000000 
      25      0.140  2.9000000 
      26      0.076  3.5500000 
      27      0.000  0.0000000 
      28      0.030  2.5000000 
      29      0.030  2.5000000 
      30      0.066  3.5000000 
      31      0.066  3.5000000 
      32      0.030  2.5000000 
      33      0.076  3.5500000 
      34      0.030  2.5000000 
      35      0.170  3.1200000 
      36      0.066  3.5000000 
      37      0.030  2.5000000 
      38      0.140  2.9000000 
      39      0.066  3.5000000 
      40      0.030  2.5000000 
      41      0.076  3.5500000 
      42      0.000  0.0000000 
      43      0.030  2.5000000 
      44      0.030  2.5000000 
      45      0.066  3.5000000 
      46      0.066  3.5000000 
      47      0.030  2.5000000 
      48      0.170  3.1200000 
      49      0.066  3.5000000 
      50      0.030  2.5000000 
      51      0.076  3.5500000 
      52      0.030  2.5000000 
      53      0.170  3.1200000 
      54      0.066  3.5000000 
      55      0.030  2.5000000 
      56      0.066  3.5000000 
      57      0.066  3.5000000 
      58      0.000  0.0000000 
      59      0.030  2.5000000 
      60      0.170  3.3000000 
      61      0.030  2.5000000 
      62      0.076  3.5500000 
      63      0.000  0.0000000 
      64      0.030  2.5000000 
      65      0.170  3.1200000 
      66      0.066  3.5000000 
      67      0.030  2.5000000 
      68      0.030  2.5000000 
      69      0.030  2.5000000 
      70      0.030  2.5000000 
      71      0.170  3.1200000 
      72      0.000  0.0000000 
      73      0.000  0.0000000 
      74      0.030  2.5000000 
      75      0.076  3.5500000 
      76      0.000  0.0000000 
      77      0.030  2.5000000 
      78      0.030  2.5000000 
      79      0.066  3.5000000 
      80      0.000  0.0000000 
      81      0.030  2.5000000 
      82      0.076  3.5500000 
      83      0.030  2.5000000 
      84      0.030  2.5000000 
      85      0.066  3.5000000 
      86      0.030  2.5000000 
      87      0.076  3.5500000 
      88      0.030  2.5000000 
      89      0.170  3.1200000 
      90      0.066  3.5000000 
      91      0.030  2.5000000 
      92      0.076  3.5500000 
      93      0.000  0.0000000 
      94      0.030  2.5000000 
      95      0.030  2.5000000 
      96      0.066  3.5000000 
      97      0.030  2.5000000 
      98      0.076  3.5500000 
      99      0.030  2.5000000 
     100      0.170  3.1200000 
     101      0.066  3.5000000 
     102      0.030  2.5000000 
     103      0.076  3.5500000 
     104      0.000  0.0000000 
     105      0.030  2.5000000 
     106      0.030  2.5000000 
     107      0.070  3.5500000 
     108      0.030  2.5000000 
     109      0.076  3.5500000 
     110      0.210  2.9600000 
     111      0.140  2.9000000 
     112      0.030  2.5000000 
     113      0.076  3.5500000 
     114      0.066  3.5000000 
     115      0.030  2.5000000 
     116      0.076  3.5500000 
     117      0.030  2.5000000 
     118      0.066  3.5000000 
     119      0.066  3.5000000 
     120      0.030  2.5000000 
     121      0.066  3.5000000 
     122      0.030  2.5000000 
     123      0.030  2.5000000 
     124      0.030  2.5000000 
     125      0.030  2.5000000 
     126      0.066  3.5000000 
     127      0.066  3.5000000 
     128      0.030  2.5000000 
     129      0.066  3.5000000 
     130      0.030  2.5000000 
     131      0.030  2.5000000 
     132      0.030  2.5000000 
     133      0.030  2.5000000 
     134      0.170  3.1200000 
     135      0.030  2.5000000 
     136      0.030  2.5000000 
     137      0.030  2.5000000 
     138      0.000  0.0000000 

Bond Coeffs 

       1   553.0000     0.9450 
       2   450.0000     1.3640 
       3   317.0000     1.5220 
       4   570.0000     1.2290 
       5   340.0000     1.0900 
       6   268.0000     1.5290 
       7   268.0000     1.5290 
       8   340.0000     1.0900 
       9   320.0000     1.4100 
      10   268.0000     1.5290 
      11   340.0000     1.0900 
      12   320.0000     1.4100 
      13   268.0000     1.5290 
      14   553.0000     0.9450 
      15   340.0000     1.0900 
      16   340.0000     1.0900 
      17   268.0000     1.5290 
      18   340.0000     1.0900 
      19   340.0000     1.0900 
      20   268.0000     1.5290 
      21   320.0000     1.3800 
      22   268.0000     1.5290 
      23   340.0000     1.0900 
      24   320.0000     1.4100 
      25   317.0000     1.5100 
      26   553.0000     0.9450 
      27   340.0000     1.0900 
      28   340.0000     1.0900 
      29   268.0000     1.5290 
      30   320.0000     1.3800 
      31   340.0000     1.0800 
      32   549.0000     1.3400 
      33   340.0000     1.0900 
      34   320.0000     1.4100 
      35   268.0000     1.5290 
      36   340.0000     1.0900 
      37   320.0000     1.3800 
      38   268.0000     1.5290 
      39   340.0000     1.0800 
      40   385.0000     1.4600 
      41   553.0000     0.9450 
      42   340.0000     1.0900 
      43   340.0000     1.0900 
      44   268.0000     1.5290 
      45   320.0000     1.4100 
      46   340.0000     1.0900 
      47   320.0000     1.4100 
      48   268.0000     1.5290 
      49   340.0000     1.0800 
      50   549.0000     1.3450 
      51   340.0000     1.0900 
      52   320.0000     1.4100 
      53   268.0000     1.5290 
      54   340.0000     1.0900 
      55   268.0000     1.5290 
      56   268.0000     1.5290 
      57   553.0000     0.9450 
      58   340.0000     1.0900 
      59   382.0000     1.4480 
      60   340.0000     1.0800 
      61   549.0000     1.3450 
      62   553.0000     0.9450 
      63   340.0000     1.0900 
      64   320.0000     1.4100 
      65   268.0000     1.5290 
      66   340.0000     1.0900 
      67   340.0000     1.0900 
      68   340.0000     1.0900 
      69   340.0000     1.0900 
      70   320.0000     1.4100 
      71   434.0000     1.0100 
      72   434.0000     1.0100 
      73   340.0000     1.0800 
      74   549.0000     1.3450 
      75   553.0000     0.9450 
      76   340.0000     1.0900 
      77   340.0000     1.0900 
      78   268.0000     1.5290 
      79   553.0000     0.9450 
      80   340.0000     1.0800 
      81   549.0000     1.3450 
      82   340.0000     1.0900 
      83   340.0000     1.0900 
      84   268.0000     1.5290 
      85   340.0000     1.0800 
      86   549.0000     1.3450 
      87   340.0000     1.0900 
      88   320.0000     1.4100 
      89   268.0000     1.5290 
      90   340.0000     1.0800 
      91   549.0000     1.3450 
      92   553.0000     0.9450 
      93   340.0000     1.0900 
      94   340.0000     1.0900 
      95   268.0000     1.5290 
      96   340.0000     1.0800 
      97   549.0000     1.3450 
      98   340.0000     1.0900 
      99   320.0000     1.4100 
     100   268.0000     1.5290 
     101   340.0000     1.0800 
     102   549.0000     1.3450 
     103   553.0000     0.9450 
     104   340.0000     1.0900 
     105   340.0000     1.0900 
     106   317.0000     1.5220 
     107   340.0000     1.0800 
     108   549.0000     1.3450 
     109   570.0000     1.2290 
     110   214.0000     1.3270 
     111   340.0000     1.0800 
     112   385.0000     1.4600 
     113   320.0000     1.4100 
     114   340.0000     1.0800 
     115   549.0000     1.3400 
     116   340.0000     1.0900 
     117   268.0000     1.5290 
     118   268.0000     1.5290 
     119   340.0000     1.0800 
     120   317.0000     1.5100 
     121   340.0000     1.0900 
     122   340.0000     1.0900 
     123   340.0000     1.0900 
     124   340.0000     1.0900 
     125   268.0000     1.5290 
     126   268.0000     1.5290 
     127   340.0000     1.0900 
     128   268.0000     1.5290 
     129   340.0000     1.0900 
     130   340.0000     1.0900 
     131   340.0000     1.0900 
     132   340.0000     1.0900 
     133   320.0000     1.4100 
     134   340.0000     1.0900 
     135   340.0000     1.0900 
     136   340.0000     1.0900 
     137   553.0000     0.9450 
     138   320.0000     1.3800 
     139   268.0000     1.5290 
     140   268.0000     1.5290 

Angle Coeffs 

       1     35.000    113.000
       2     70.000    108.000
       3     80.000    121.000
       4     35.000    109.500
       5     63.000    111.100
       6     63.000    111.100
       7     37.500    110.700
       8     50.000    109.500
       9     58.350    112.700
      10     37.500    110.700
      11     50.000    109.500
      12     58.350    112.700
      13     55.000    108.500
      14     37.500    110.700
      15     37.500    110.700
      16     58.350    112.700
      17     37.500    110.700
      18     37.500    110.700
      19     58.350    112.700
      20     50.000    109.500
      21     58.350    112.700
      22     37.500    110.700
      23     50.000    109.500
      24     63.000    111.100
      25     55.000    108.500
      26     37.500    110.700
      27     37.500    110.700
      28     58.350    112.700
      29     60.000    109.500
      30     35.000    117.000
      31     70.000    124.000
      32     37.500    110.700
      33     50.000    109.500
      34     58.350    112.700
      35     35.000    109.500
      36     92.600    111.550
      37     50.000    109.500
      38     35.000    120.000
      39     70.000    124.000
      40     55.000    108.500
      41     37.500    110.700
      42     37.500    110.700
      43     58.350    112.700
      44     60.000    109.500
      45     37.500    110.700
      46     50.000    109.500
      47     58.350    112.700
      48     35.000    120.000
      49     70.000    124.000
      50     37.500    110.700
      51     50.000    109.500
      52     58.350    112.700
      53     35.000    109.500
      54     50.000    109.500
      55     50.000    109.500
      56     55.000    108.500
      57     37.500    110.700
      58     56.200    109.470
      59     35.000    120.000
      60     70.000    124.000
      61     55.000    108.500
      62     37.500    110.700
      63     50.000    109.500
      64     58.350    112.700
      65     37.500    110.700
      66     37.500    110.700
      67     37.500    110.700
      68     37.500    110.700
      69     50.000    109.500
      70     35.000    109.500
      71     35.000    109.500
      72     35.000    120.000
      73     70.000    124.000
      74     55.000    108.500
      75     37.500    110.700
      76     37.500    110.700
      77     58.350    112.700
      78     55.000    108.500
      79     35.000    120.000
      80     70.000    124.000
      81     37.500    110.700
      82     37.500    110.700
      83     58.350    112.700
      84     35.000    120.000
      85     70.000    124.000
      86     37.500    110.700
      87     50.000    109.500
      88     58.350    112.700
      89     35.000    120.000
      90     70.000    124.000
      91     55.000    108.500
      92     37.500    110.700
      93     37.500    110.700
      94     58.350    112.700
      95     35.000    120.000
      96     70.000    124.000
      97     37.500    110.700
      98     50.000    109.500
      99     58.350    112.700
     100     35.000    120.000
     101     70.000    124.000
     102     55.000    108.500
     103     37.500    110.700
     104     37.500    110.700
     105     63.000    111.100
     106     35.000    120.000
     107     70.000    124.000
     108     80.000    120.400
     109     81.000    111.400
     110     35.000    120.000
     111     70.000    124.000
     112     83.000    116.900
     113     35.000    120.000
     114     70.000    124.000
     115     35.000    109.500
     116     50.000    109.500
     117     50.000    109.500
     118     35.000    120.000
     119     70.000    124.000
     120     37.500    110.700
     121     37.500    110.700
     122     37.500    110.700
     123     37.500    110.700
     124     58.350    112.700
     125     58.350    112.700
     126     35.000    109.500
     127     63.000    111.100
     128     37.500    110.700
     129     37.500    110.700
     130     37.500    110.700
     131     37.500    110.700
     132     50.000    109.500
     133     37.500    110.700
     134     37.500    110.700
     135     37.500    110.700
     136     55.000    108.500
     137     35.000    109.500
     138     35.000    120.000
     139     33.000    107.800
     140     50.000    109.500
     141     37.500    110.700
     142     35.000    120.000
     143     58.350    112.700
     144     58.350    112.700
     145     37.500    110.700
     146     50.000    109.500
     147     35.000    109.500
     148     37.500    110.700
     149     50.000    109.500
     150     37.500    110.700
     151     37.500    110.700
     152     35.000    120.000
     153     50.000    109.500
     154     35.000    109.500
     155     37.500    110.700
     156     37.500    110.700
     157     35.000    109.500
     158     35.000    120.000
     159     43.600    106.400
     160     56.200    109.470
     161     33.000    107.800
     162     37.500    110.700
     163     37.500    110.700
     164     37.500    110.700
     165     50.000    109.500
     166     35.000    120.000
     167     37.500    110.700
     168     37.500    110.700
     169     35.000    109.500
     170     58.350    112.700
     171     35.000    109.500
     172     37.500    110.700
     173     37.500    110.700
     174     83.000    123.400
     175     37.500    110.700
     176     33.000    107.800
     177     37.500    110.700
     178     33.000    107.800
     179     37.500    110.700
     180     50.000    109.500
     181     80.000    120.400
     182     50.000    109.500
     183     58.350    112.700
     184     35.000    120.000
     185     58.350    112.700
     186     33.000    107.800
     187     35.000    120.000
     188     35.000    109.500
     189     37.500    110.700
     190     35.000    120.000
     191     33.000    107.800
     192     35.000    109.500
     193     33.000    107.800
     194     37.500    110.700
     195     33.000    107.800
     196     37.500    110.700
     197     37.500    110.700
     198     35.000    109.500
     199     50.000    109.500
     200     35.000    109.500
     201     37.500    110.700
     202     37.500    110.700
     203     50.000    109.500
     204     35.000    120.000
     205     33.000    107.800
     206     37.500    110.700
     207     92.600    111.550
     208     63.000    111.100
     209     58.350    112.700
     210     37.500    110.700
     211     35.000    120.000
     212     33.000    107.800
     213     35.000    109.500
     214     37.500    110.700
     215     50.000    109.500
     216     33.000    107.800
     217     35.000    109.500
     218     33.000    107.800
     219     33.000    107.800
     220     35.000    120.000
     221     50.000    109.500
     222     37.500    110.700
     223     50.000    109.500
     224     33.000    107.800
     225     33.000    107.800
     226     35.000    109.500
     227     35.000    120.000
     228     50.000    109.500
     229     37.500    110.700
     230     37.500    110.700
     231     37.500    110.700
     232     33.000    107.800
     233     35.000    109.500
     234     50.000    109.500
     235     37.500    110.700
     236     35.000    109.500
     237     60.000    109.500
     238     58.350    112.700
     239     37.500    110.700
     240     37.500    110.700
     241     35.000    120.000
     242     33.000    107.800
     243     33.000    107.800
     244     35.000    117.000
     245     37.500    110.700
     246     58.350    112.700
     247     33.000    107.800
     248     50.000    109.500
     249     37.500    110.700
     250     37.500    110.700
     251     33.000    107.800
     252     35.000    109.500

Dihedral Coeffs  

       1      1.500      5.500      0.000      0.000 
       2      0.000      0.000      0.000      0.000 
       3      0.000      0.000     -0.100      0.000 
       4      0.000      0.000     -0.100      0.000 
       5     -0.356     -0.174      0.492      0.000 
       6      0.000      0.000      0.300      0.000 
       7      0.000      0.000      0.300      0.000 
       8      0.000      0.000      0.300      0.000 
       9     -0.356     -0.174      0.492      0.000 
      10      0.000      0.000      0.300      0.000 
      11      0.650     -0.250      0.670      0.000 
      12      0.000     -8.000      0.000      0.000 
      13      0.000      0.000      0.300      0.000 
      14      0.000      0.000      0.760      0.000 
      15      0.000     14.000      0.000      0.000 
      16     -0.356     -0.174      0.492      0.000 
      17      0.000      0.000      0.300      0.000 
      18     -0.375     -1.358      0.004      0.000 
      19      0.000      0.000      0.468      0.000 
      20      0.000      0.000     -0.372      0.000 
      21      0.000      0.000      0.300      0.000 
      22      0.000      0.000      0.760      0.000 
      23     -0.356     -0.174      0.492      0.000 
      24      0.000     14.000      0.000      0.000 
      25     -0.356     -0.174      0.492      0.000 
      26      0.000      0.000      0.300      0.000 
      27      0.000      0.000      0.468      0.000 
      28     -0.190     -0.417      0.418      0.000 
      29      0.000     14.000      0.000      0.000 
      30     -0.356     -0.174      0.492      0.000 
      31      0.000      0.000      0.300      0.000 
      32     -0.356     -0.174      0.492      0.000 
      33      0.000     14.000      0.000      0.000 
      34      0.000      0.000      0.300      0.000 
      35      0.000     14.000      0.000      0.000 
      36      0.000      0.000      0.300      0.000 
      37      0.000     14.000      0.000      0.000 
      38     -0.356     -0.174      0.492      0.000 
      39      0.000      0.000      0.300      0.000 
      40      0.000     14.000      0.000      0.000 
      41      0.000      0.000      0.300      0.000 
      42      0.000     14.000      0.000      0.000 
      43     -0.356     -0.174      0.492      0.000 
      44      0.000      0.000      0.300      0.000 
      45      0.000     14.000      0.000      0.000 
      46      0.000      0.000      0.000      0.000 
      47      0.000     14.000      0.000      0.000 
      48      4.669      5.124      0.000      0.000 
      49      0.000      0.000     -0.372      0.000 
      50      0.000      0.000      0.198      0.000 
      51      0.000     14.000      0.000      0.000 
      52      0.000      0.000      0.468      0.000 
      53      0.000      0.000      0.468      0.000 
      54      0.000      0.000      0.300      0.000 
      55      0.000      0.000      0.366      0.000 
      56     -0.356     -0.174      0.492      0.000 
      57      0.000     14.000      0.000      0.000 
      58     -0.190     -0.417      0.418      0.000 
      59      0.000      0.000      0.468      0.000 
      60      0.000      0.000      0.300      0.000 
      61      0.000      0.000      0.366      0.000 
      62      0.650     -0.250      0.670      0.000 
      63      0.000      0.000      0.468      0.000 
      64      0.000      0.000      0.468      0.000 
      65      0.000      0.000      0.300      0.000 
      66      0.000      0.000      0.300      0.000 
      67      1.300     -0.200      0.200      0.000 
      68      0.000      0.000      0.468      0.000 
      69      1.711     -0.500      0.663      0.000 
      70      0.000     14.000      0.000      0.000 
      71      0.000      0.000      0.468      0.000 
      72      0.000      0.000      0.300      0.000 
      73      0.000      0.000      0.300      0.000 
      74      0.000      0.000      0.468      0.000 
      75      1.300     -0.200      0.200      0.000 
      76      0.650     -0.250      0.670      0.000 
      77     -0.190     -0.417      0.418      0.000 
      78      0.000      0.000      0.468      0.000 
      79      1.300     -0.200      0.200      0.000 
      80      1.300     -0.200      0.200      0.000 
      81      0.000     14.000      0.000      0.000 
      82      0.000      0.000      0.300      0.000 
      83      0.000      0.000      0.468      0.000 
      84      1.300     -0.200      0.200      0.000 
      85     -1.552      0.000      0.000      0.000 
      86      0.000      0.000      0.468      0.000 
      87      0.000      0.000      0.352      0.000 
      88     -0.356     -0.174      0.492      0.000 
      89      0.000      0.000      0.000      0.000 
      90      0.000      0.000      0.132      0.000 
      91      0.000      0.000      0.300      0.000 
      92      0.000      0.000      0.468      0.000 
      93      0.000      0.000      0.468      0.000 
      94      1.300     -0.200      0.200      0.000 
      95      0.000      0.000      0.132      0.000 
      96      0.000     14.000      0.000      0.000 
      97      0.000     14.000      0.000      0.000 
      98      1.300     -0.200      0.200      0.000 
      99      1.000      0.546      0.450      0.000 
     100      0.000     14.000      0.000      0.000 
     101      1.423      4.055      0.858      0.000 
     102      2.392     -0.674      0.550      0.000 
     103      0.650     -0.250      0.670      0.000 
     104      0.000      0.000      0.300      0.000 
     105      1.300     -0.200      0.200      0.000 
     106      0.000      0.000      0.300      0.000 
     107      0.000     14.000      0.000      0.000 
     108      0.000      0.000      0.300      0.000 
     109      0.000      0.000      0.300      0.000 
     110      0.000      0.000      0.300      0.000 
     111      0.000      0.000      0.468      0.000 
     112      0.000      0.000      0.300      0.000 
     113      0.000      0.000      0.300      0.000 
     114      0.000      0.000      0.300      0.000 
     115      0.000      0.000      0.300      0.000 
     116      1.300     -0.200      0.200      0.000 
     117     -0.356     -0.174      0.492      0.000 
     118      0.000      0.000      0.300      0.000 
     119      0.000     14.000      0.000      0.000 
     120      0.000      0.000      0.300      0.000 
     121      1.300     -0.200      0.200      0.000 
     122     -1.220     -0.126      0.422      0.000 
     123      0.000      0.000      0.000      0.000 
     124      0.000      0.000      0.468      0.000 
     125      0.000      0.000      0.300      0.000 
     126      0.000      0.000      0.468      0.000 
     127      0.000      0.000      0.300      0.000 
     128      0.000      0.000      0.300      0.000 
     129      2.392     -0.674      0.550      0.000 
     130      0.000      0.000     -0.372      0.000 
     131      1.300     -0.200      0.200      0.000 
     132      0.000      0.000      0.300      0.000 
     133     -1.552      0.000      0.000      0.000 
     134      0.000      0.000      0.300      0.000 
     135      0.346      0.405     -0.904      0.000 
     136      1.300     -0.200      0.200      0.000 
     137      0.000      0.000      0.300      0.000 
     138      0.000      0.000      0.300      0.000 
     139      0.000      0.000      0.300      0.000 
     140     -0.356     -0.174      0.492      0.000 
     141      0.000      0.000      0.300      0.000 
     142      0.000      0.000      0.300      0.000 
     143      0.000      0.000      0.300      0.000 
     144      0.000      0.000      0.468      0.000 
     145     -0.356     -0.174      0.492      0.000 
     146     -0.356     -0.174      0.492      0.000 
     147      0.000      0.000     -0.372      0.000 
     148      0.000     14.000      0.000      0.000 
     149      0.000      0.000      0.760      0.000 
     150      1.711     -0.500      0.663      0.000 
     151      0.650     -0.250      0.670      0.000 
     152      0.650     -0.250      0.670      0.000 
     153      0.000      0.000      0.468      0.000 
     154      0.000      0.000      0.300      0.000 
     155     -1.552      0.000      0.000      0.000 
     156      1.300     -0.200      0.200      0.000 
     157      0.000      0.000      0.468      0.000 
     158      0.000      0.000      0.366      0.000 
     159      0.000     14.000      0.000      0.000 
     160      0.000      0.000      0.300      0.000 
     161      0.000      0.000      0.318      0.000 
     162      0.000      0.000      0.300      0.000 
     163     -0.356     -0.174      0.492      0.000 
     164      0.000      0.000      0.300      0.000 
     165      0.000      0.000      0.300      0.000 
     166      0.000     14.000      0.000      0.000 
     167     -0.375     -1.358      0.004      0.000 
     168      0.000      0.000      0.300      0.000 
     169      0.000     14.000      0.000      0.000 
     170      0.000      0.000      0.468      0.000 
     171      0.000      0.000      0.366      0.000 
     172      0.000      0.000      0.468      0.000 
     173      1.300     -0.200      0.200      0.000 
     174      0.000      0.000      0.300      0.000 
     175      0.650     -0.250      0.670      0.000 
     176      0.000     14.000      0.000      0.000 
     177      0.000      0.000      0.300      0.000 
     178      0.000      0.000      0.468      0.000 
     179      0.000     -8.000      0.000      0.000 
     180      0.000      0.000      0.300      0.000 
     181      0.000      0.000      0.300      0.000 