LAMMPS data file Created by LigParGen - (Written by Leela S. Dodda)

      14 atoms
      14 bonds
      21 angles
      28 dihedrals
       7 impropers
 
      14 atom types
      14 bond types
      21 angle types
      28 dihedral types
       7 improper types
 
   -4.273570    45.726430 xlo xhi
    0.528210    50.528210 ylo yhi
   -2.126280    47.873720 zlo zhi

Masses

       1     14.007  
       2     12.011  
       3     12.011  
       4     12.011  
       5     12.011  
       6     12.011  
       7     12.011  
       8      1.008  
       9      1.008  
      10      1.008  
      11      1.008  
      12      1.008  
      13      1.008  
      14      1.008  

Pair Coeffs 

       1      0.170  3.3000000 
       2      0.070  3.5500000 
       3      0.070  3.5500000 
       4      0.070  3.5500000 
       5      0.070  3.5500000 
       6      0.070  3.5500000 
       7      0.070  3.5500000 
       8      0.000  0.0000000 
       9      0.000  0.0000000 
      10      0.030  2.4200000 
      11      0.030  2.4200000 
      12      0.030  2.4200000 
      13      0.030  2.4200000 
      14      0.030  2.4200000 

Bond Coeffs 

       1   481.0000     1.3400 
       2   469.0000     1.4000 
       3   469.0000     1.4000 
       4   469.0000     1.4000 
       5   469.0000     1.4000 
       6   469.0000     1.4000 
       7   434.0000     1.0100 
       8   434.0000     1.0100 
       9   367.0000     1.0800 
      10   367.0000     1.0800 
      11   367.0000     1.0800 
      12   367.0000     1.0800 
      13   367.0000     1.0800 
      14   469.0000     1.4000 

Angle Coeffs 

       1     70.000    120.000
       2     63.000    120.000
       3     63.000    120.000
       4     63.000    120.000
       5     70.000    120.000
       6     35.000    116.000
       7     35.000    116.000
       8     35.000    120.000
       9     35.000    120.000
      10     35.000    120.000
      11     35.000    120.000
      12     35.000    120.000
      13     63.000    120.000
      14     35.000    120.000
      15     43.600    106.400
      16     35.000    120.000
      17     35.000    120.000
      18     35.000    120.000
      19     35.000    120.000
      20     63.000    120.000
      21     63.000    120.000

Dihedral Coeffs  

       1      0.000      7.250      0.000      0.000 
       2      0.000      7.250      0.000      0.000 
       3      0.000      7.250      0.000      0.000 
       4      0.000      2.030      0.000      0.000 
       5      0.000      7.250      0.000      0.000 
       6      0.000      7.250      0.000      0.000 
       7      0.000      2.030      0.000      0.000 
       8      0.000      7.250      0.000      0.000 
       9      0.000      7.250      0.000      0.000 
      10      0.000      7.250      0.000      0.000 
      11      0.000      7.250      0.000      0.000 
      12      0.000      7.250      0.000      0.000 
      13      0.000      7.250      0.000      0.000 
      14      0.000      7.250      0.000      0.000 
      15      0.000      7.250      0.000      0.000 
      16      0.000      7.250      0.000      0.000 
      17      0.000      7.250      0.000      0.000 
      18      0.000      7.250      0.000      0.000 
      19      0.000      2.030      0.000      0.000 
      20      0.000      7.250      0.000      0.000 
      21      0.000      2.030      0.000      0.000 
      22      0.000      7.250      0.000      0.000 
      23      0.000      7.250      0.000      0.000 
      24      0.000      7.250      0.000      0.000 
      25      0.000      7.250      0.000      0.000 
      26      0.000      7.250      0.000      0.000 
      27      0.000      7.250      0.000      0.000 
      28      0.000      7.250      0.000      0.000 

Improper Coeffs 

       1      2.500      -1       2 
       2      0.000      -1       2 
       3      2.500      -1       2 
       4      2.500      -1       2 
       5      2.500      -1       2 
       6      2.500      -1       2 
       7      2.500      -1       2 

Atoms 

     1      1      1 -0.92180000    0.997849      0.988450     -0.000241
     2      1      2 0.26160000    -0.397976      1.053994      0.005689
     3      1      3 -0.19590000   -1.110937      1.001625      1.212068
     4      1      4 -0.09880000   -2.496335      1.123806      1.217965
     5      1      5 -0.17950000   -3.201734      1.301652      0.028614
     6      1      6 -0.09880000   -2.495336      1.355726     -1.172261
     7      1      7 -0.19460000   -1.109997      1.234619     -1.188728
     8      1      8 0.37090000     1.416906      0.534025      0.797627
     9      1      9 0.37090000     1.417295      0.694271     -0.869837
    10      1     10 0.13680000    -0.572827      0.869066      2.145524
    11      1     11 0.13780000    -3.028009      1.078511      2.162272
    12      1     12 0.13710000    -4.280943      1.395801      0.037224
    13      1     13 0.13730000    -3.026009      1.492992     -2.108201
    14      1     14 0.13700000    -0.570946      1.284462     -2.129717

Bonds 

     1      1      2      1
     2      2      3      2
     3      3      4      3
     4      4      5      4
     5      5      6      5
     6      6      7      2
     7      7      8      1
     8      8      9      1
     9      9     10      3
    10     10     11      4
    11     11     12      5
    12     12     13      6
    13     13     14      7
    14     14      7      6

Angles 

     1      1      1      2      3
     2      2      2      3      4
     3      3      3      4      5
     4      4      4      5      6
     5      5      1      2      7
     6      6      2      1      8
     7      7      2      1      9
     8      8      2      3     10
     9      9      3      4     11
    10     10      4      5     12
    11     11      5      6     13
    12     12      2      7     14
    13     13      5      6      7
    14     14      5      4     11
    15     15      8      1      9
    16     16      6      7     14
    17     17      6      5     12
    18     18      4      3     10
    19     19      7      6     13
    20     20      3      2      7
    21     21      2      7      6

Dihedrals

     1      1      4      3      2      1 
     2      2      5      4      3      2 
     3      3      6      5      4      3 
     4      4      8      1      2      3 
     5      5      6      7      2      1 
     6      6      6      7      2      3 
     7      7      9      1      2      3 
     8      8     14      7      2      3 
     9      9      7      6      5      4 
    10     10     14      7      6     13 
    11     11     12      5      4      3 
    12     12     13      6      5      4 
    13     13     11      4      3      2 
    14     14     12      5      6      7 
    15     15     13      6      5     12 
    16     16     13      6      7      2 
    17     17     10      3      2      7 
    18     18     12      5      4     11 
    19     19      9      1      2      7 
    20     20      5      6      7      2 
    21     21      8      1      2      7 
    22     22     14      7      2      1 
    23     23     10      3      2      1 
    24     24      7      2      3      4 
    25     25     10      3      4      5 
    26     26     11      4      3     10 
    27     27     14      7      6      5 
    28     28     11      4      5      6 

Impropers

     1      1      2      1      3      7 
     2      2      1      9      8      2 
     3      3      3     10      4      2 
     4      4      4     11      5      3 
     5      5      5      4     12      6 
     6      6      6      5     13      7 
     7      7      7      2     14      6 

