LAMMPS data file Created by LigParGen - (Written by Leela S. Dodda)

      35 atoms
      34 bonds
      64 angles
      93 dihedrals
      21 impropers
 
      35 atom types
      34 bond types
      64 angle types
      93 dihedral types
      21 improper types
 
   -8.155860    41.844140 xlo xhi
   -3.395480    46.604520 ylo yhi
   -0.929740    49.070260 zlo zhi

Masses

       1     12.011  
       2     12.011  
       3     12.011  
       4     15.999  
       5     14.007  
       6     12.011  
       7     12.011  
       8     12.011  
       9     12.011  
      10     14.007  
      11     12.011  
      12     12.011  
      13     12.011  
      14     35.450  
      15      1.008  
      16      1.008  
      17      1.008  
      18      1.008  
      19      1.008  
      20      1.008  
      21      1.008  
      22      1.008  
      23      1.008  
      24      1.008  
      25      1.008  
      26      1.008  
      27      1.008  
      28      1.008  
      29      1.008  
      30      1.008  
      31      1.008  
      32      1.008  
      33      1.008  
      34      1.008  
      35      1.008  

Pair Coeffs 

       1      0.076  3.5500000 
       2      0.076  3.5500000 
       3      0.070  3.5500000 
       4      0.210  2.9600000 
       5      0.170  3.2500000 
       6      0.066  3.5000000 
       7      0.066  3.5000000 
       8      0.066  3.5000000 
       9      0.066  3.5000000 
      10      0.170  3.2500000 
      11      0.066  3.5000000 
      12      0.066  3.5000000 
      13      0.066  3.5000000 
      14      0.300  3.4000000 
      15      0.030  2.5000000 
      16      0.030  2.5000000 
      17      0.030  2.5000000 
      18      0.000  0.0000000 
      19      0.030  2.5000000 
      20      0.030  2.5000000 
      21      0.030  2.5000000 
      22      0.030  2.5000000 
      23      0.030  2.5000000 
      24      0.030  2.5000000 
      25      0.030  2.5000000 
      26      0.030  2.5000000 
      27      0.030  2.5000000 
      28      0.030  2.5000000 
      29      0.030  2.5000000 
      30      0.030  2.5000000 
      31      0.030  2.5000000 
      32      0.030  2.5000000 
      33      0.030  2.5000000 
      34      0.030  2.5000000 
      35      0.030  2.5000000 

Bond Coeffs 

       1   549.0000     1.3400 
       2   410.0000     1.4440 
       3   570.0000     1.2290 
       4   490.0000     1.3350 
       5   337.0000     1.4490 
       6   268.0000     1.5290 
       7   268.0000     1.5290 
       8   268.0000     1.5290 
       9   337.0000     1.4490 
      10   337.0000     1.4490 
      11   337.0000     1.4490 
      12   337.0000     1.4490 
      13   299.3900     1.6850 
      14   340.0000     1.0800 
      15   340.0000     1.0800 
      16   340.0000     1.0800 
      17   434.0000     1.0100 
      18   340.0000     1.0900 
      19   340.0000     1.0900 
      20   340.0000     1.0900 
      21   340.0000     1.0900 
      22   340.0000     1.0900 
      23   340.0000     1.0900 
      24   340.0000     1.0900 
      25   340.0000     1.0900 
      26   340.0000     1.0900 
      27   340.0000     1.0900 
      28   340.0000     1.0900 
      29   340.0000     1.0900 
      30   340.0000     1.0900 
      31   340.0000     1.0900 
      32   340.0000     1.0900 
      33   340.0000     1.0900 
      34   340.0000     1.0900 

Angle Coeffs 

       1     85.000    120.700
       2     80.000    125.300
       3     70.000    115.500
       4     50.000    121.900
       5     80.000    109.700
       6     58.350    112.700
       7     58.350    112.700
       8     80.000    109.700
       9     50.000    118.000
      10     50.000    118.000
      11     50.000    118.000
      12     48.370    118.330
      13     35.000    120.000
      14     35.000    120.000
      15     35.000    120.000
      16     35.000    119.800
      17     35.000    109.500
      18     35.000    109.500
      19     37.500    110.700
      20     37.500    110.700
      21     37.500    110.700
      22     37.500    110.700
      23     37.500    110.700
      24     37.500    110.700
      25     35.000    109.500
      26     35.000    109.500
      27     35.000    109.500
      28     35.000    109.500
      29     35.000    109.500
      30     35.000    109.500
      31     35.000    109.500
      32     35.000    109.500
      33     35.000    109.500
      34     33.000    107.800
      35     33.000    107.800
      36     33.000    107.800
      37     48.370    118.330
      38     33.000    107.800
      39     48.370    118.330
      40     35.000    119.700
      41     33.000    107.800
      42     37.500    110.700
      43     50.000    118.000
      44     33.000    107.800
      45     37.500    110.700
      46     33.000    107.800
      47     80.000    122.900
      48     33.000    107.800
      49     33.000    107.800
      50     37.500    110.700
      51     48.370    118.330
      52     33.000    107.800
      53     35.000    117.000
      54     33.000    107.800
      55     33.000    107.800
      56     35.000    109.500
      57     37.500    110.700
      58     35.000    109.500
      59     37.500    110.700
      60     50.000    118.000
      61     33.000    107.800
      62     50.000    118.000
      63     37.500    110.700
      64     38.000    118.400

Dihedral Coeffs  

       1      2.500      6.000      0.000      0.000 
       2      2.300      6.089      0.000      0.000 
       3      0.000      0.462      0.000      0.000 
       4      0.845     -0.962      0.713      0.000 
       5      1.300     -0.200      0.200      0.000 
       6      0.845     -0.962      0.713      0.000 
       7      4.753     -0.734      0.000      0.000 
       8      0.000     14.000      0.000      0.000 
       9      0.000      0.000      0.000      0.000 
      10      0.000      0.000      0.000      0.000 
      11      0.000      0.000      0.000      0.000 
      12      0.000      0.000      0.300      0.000 
      13      0.000      0.000      0.000      0.000 
      14      0.000      0.000      0.000      0.000 
      15      0.000      0.000      0.300      0.000 
      16      0.000      0.000      0.300      0.000 
      17      4.753     -0.734      0.000      0.000 
      18      0.000      0.000      0.000      0.000 
      19      0.000      0.000      0.000      0.000 
      20      0.000      0.000      0.000      0.000 
      21      0.000      0.000      0.464      0.000 
      22      0.000      0.000      0.300      0.000 
      23      0.000      0.000      0.464      0.000 
      24      0.000      0.000      0.000      0.000 
      25      0.000      0.000      0.300      0.000 
      26      0.000      0.000      0.300      0.000 
      27      0.000      0.000      0.000      0.000 
      28      0.000      0.000      0.000      0.000 
      29      0.000     14.000      0.000      0.000 
      30      0.000      0.000      0.000      0.000 
      31      0.000      0.000      0.000      0.000 
      32      0.000      4.900      0.000      0.000 
      33      0.000      0.000      0.000      0.000 
      34      0.000      0.000      0.000      0.000 
      35      0.000      0.000      0.000      0.000 
      36      0.000      0.000      0.000      0.000 
      37      0.000      0.000      0.000      0.000 
      38      0.000      0.000      0.000      0.000 
      39      0.000      0.000      0.300      0.000 
      40      0.000      0.000      0.000      0.000 
      41      0.000      0.000      0.300      0.000 
      42      0.000      6.089      0.000      0.000 
      43      0.000      0.000      0.000      0.000 
      44      0.000      0.000      0.464      0.000 
      45      0.000      0.462      0.000      0.000 
      46      0.000     14.000      0.000      0.000 
      47      0.000      0.000      0.000      0.000 
      48      0.000      0.000      0.464      0.000 
      49      0.000      0.000      0.300      0.000 
      50      0.000      0.000      0.300      0.000 
      51      0.000      0.000      0.000      0.000 
      52      0.000      0.000      0.000      0.000 
      53      0.000      0.000      0.000      0.000 
      54      0.000      0.000      0.000      0.000 
      55      0.000      0.000      0.000      0.000 
      56      0.000      0.000      0.300      0.000 
      57      0.000      0.000      0.000      0.000 
      58      0.000      0.000      0.000      0.000 
      59      0.000      0.000      0.300      0.000 
      60      0.000      0.000      0.300      0.000 
      61      0.000      0.000      0.000      0.000 
      62      0.000      0.000      0.000      0.000 
      63      0.000      0.000      0.000      0.000 
      64      0.000      0.000      0.300      0.000 
      65      0.000      0.000      0.300      0.000 
      66      0.000      0.000      0.300      0.000 
      67      0.000      0.000      0.300      0.000 
      68      0.000      0.000      0.300      0.000 
      69      0.000      0.000      0.300      0.000 
      70      0.000      0.000      0.000      0.000 
      71      0.000      0.000      0.000      0.000 
      72      0.000      0.000      0.000      0.000 
      73      0.000      0.000      0.000      0.000 
      74      0.000      0.000      0.000      0.000 
      75      0.000      0.000      0.000      0.000 
      76      0.000      0.000      0.000      0.000 
      77      0.000      0.000      0.000      0.000 
      78      0.000      0.000      0.000      0.000 
      79      0.000      0.000      0.000      0.000 
      80      0.000      0.000      0.000      0.000 
      81      0.000      0.000      0.300      0.000 
      82      2.000      0.000      0.000      0.000 
      83      0.000      0.000      0.000      0.000 
      84      4.753     -0.734      0.000      0.000 
      85      0.000      0.000      0.000      0.000 
      86      0.000      0.000      0.000      0.000 
      87      0.000      0.000      0.000      0.000 
      88      0.000      0.000      0.000      0.000 
      89      0.000      4.900      0.000      0.000 
      90      0.000      0.000      0.000      0.000 
      91      0.000      0.000      0.000      0.000 
      92      0.000     14.000      0.000      0.000 
      93      0.000      0.000      0.000      0.000 

Improper Coeffs 

       1     10.500      -1       2 
       2      2.500      -1       2 
       3      2.500      -1       2 
       4      2.500      -1       2 
       5      2.500      -1       2 
       6      2.500      -1       2 
       7      2.500      -1       2 
       8      0.000      -1       2 
       9      0.000      -1       2 
      10      0.000      -1       2 
      11      0.000      -1       2 
      12      0.000      -1       2 
      13      0.000      -1       2 
      14      0.000      -1       2 
      15      0.000      -1       2 
      16      0.000      -1       2 
      17      0.000      -1       2 
      18      0.000      -1       2 
      19      0.000      -1       2 
      20      0.000      -1       2 
      21      0.000      -1       2 

Atoms 

     1      1      1 -0.14400000    1.000  1.00000  0.00000
     2      1      2 -0.26790000   -0.339  1.00000  0.00000
     3      1      3 0.65240000   -1.085  1.00000  1.28117
     4      1      4 -0.44580000   -0.526  1.00000  2.37233
     5      1      5 -1.11960000   -2.448  1.00160  1.10799
     6      1      6 0.15970000   -3.346  1.08136  2.23458
     7      1      7 -0.20430000   -3.717 -0.29565  2.78270
     8      1      8 -0.19980000   -4.669 -0.13711  3.97520
     9      1      9 -0.11090000   -5.025 -1.51340  4.61202
    10      1     10 -0.07230000   -6.003 -1.63763  5.87689
    11      1     11 -0.10710000   -4.860 -0.87623  6.66454
    12      1     12 -0.16930000   -6.943 -0.91375  6.91493
    13      1     13 -0.11090000   -7.161 -1.30543  4.85935
    14      1     14 -0.45660000   -6.018 -3.39548  6.31576
    15      1     15 0.14580000    1.558  1.00117 -0.92893
    16      1     16 0.14580000    1.565  1.00000  0.92818
    17      1     17 0.14640000   -0.892  1.00118 -0.92974
    18      1     18 0.51690000   -2.840  0.94734  0.17789
    19      1     19 0.10480000   -4.244  1.60966  1.89448
    20      1     20 0.10480000   -2.878  1.68551  3.02124
    21      1     21 0.10470000   -2.812 -0.83264  3.09212
    22      1     22 0.10470000   -4.191 -0.89512  1.99623
    23      1     23 0.09100000   -5.564  0.38493  3.62632
    24      1     24 0.09100000   -4.175  0.51709  4.69872
    25      1     25 0.10710000   -4.078 -2.04234  4.83282
    26      1     26 0.10710000   -5.348 -2.18707  3.79795
    27      1     27 0.09470000   -4.963  0.22024  6.61930
    28      1     28 0.09470000   -3.818 -1.10754  6.39142
    29      1     29 0.09470000   -4.813 -1.18209  7.72360
    30      1     30 0.08910000   -7.086  0.16284  6.71962
    31      1     31 0.08910000   -6.640 -1.02246  7.97102
    32      1     32 0.08910000   -7.939 -1.38408  6.99866
    33      1     33 0.09150000   -7.244 -0.23182  4.63529
    34      1     34 0.09150000   -8.156 -1.65039  5.18953
    35      1     35 0.09150000   -7.126 -1.85193  3.90412

Bonds 

     1      1      2      1
     2      2      3      2
     3      3      4      3
     4      4      5      3
     5      5      6      5
     6      6      7      6
     7      7      8      7
     8      8      9      8
     9      9     10      9
    10     10     11     10
    11     11     12     10
    12     12     13     10
    13     13     14     10
    14     14     15      1
    15     15     16      1
    16     16     17      2
    17     17     18      5
    18     18     19      6
    19     19     20      6
    20     20     21      7
    21     21     22      7
    22     22     23      8
    23     23     24      8
    24     24     25      9
    25     25     26      9
    26     26     27     11
    27     27     28     11
    28     28     29     11
    29     29     30     12
    30     30     31     12
    31     31     32     12
    32     32     33     13
    33     33     34     13
    34     34     35     13

Angles 

     1      1      1      2      3
     2      2      2      3      4
     3      3      2      3      5
     4      4      3      5      6
     5      5      5      6      7
     6      6      6      7      8
     7      7      7      8      9
     8      8      8      9     10
     9      9      9     10     11
    10     10      9     10     12
    11     11      9     10     13
    12     12      9     10     14
    13     13      2      1     15
    14     14      2      1     16
    15     15      1      2     17
    16     16      3      5     18
    17     17      5      6     19
    18     18      5      6     20
    19     19      6      7     21
    20     20      6      7     22
    21     21      7      8     23
    22     22      7      8     24
    23     23      8      9     25
    24     24      8      9     26
    25     25     10     11     27
    26     26     10     11     28
    27     27     10     11     29
    28     28     10     12     30
    29     29     10     12     31
    30     30     10     12     32
    31     31     10     13     33
    32     32     10     13     34
    33     33     10     13     35
    34     34     33     13     34
    35     35     31     12     32
    36     36     23      8     24
    37     37     13     10     14
    38     38     25      9     26
    39     39     11     10     14
    40     40      3      2     17
    41     41     33     13     35
    42     42      9      8     23
    43     43     12     10     13
    44     44     34     13     35
    45     45      7      6     19
    46     46     30     12     32
    47     47      4      3      5
    48     48     27     11     28
    49     49     30     12     31
    50     50      9      8     24
    51     51     12     10     14
    52     52     19      6     20
    53     53     15      1     16
    54     54     27     11     29
    55     55     21      7     22
    56     56     10      9     25
    57     57      8      7     22
    58     58     10      9     26
    59     59      8      7     21
    60     60     11     10     13
    61     61     28     11     29
    62     62     11     10     12
    63     63      7      6     20
    64     64      6      5     18

Dihedrals

     1      1      4      3      2      1 
     2      2      6      5      3      2 
     3      3      7      6      5      3 
     4      4      8      7      6      5 
     5      5      9      8      7      6 
     6      6     10      9      8      7 
     7      7     11     10      9      8 
     8      8     15      1      2      3 
     9      9     27     11     10      9 
    10     10     30     12     10      9 
    11     11     33     13     10      9 
    12     12     22      7      6     20 
    13     13     29     11     10     14 
    14     14     19      6      5      3 
    15     15     21      7      6     19 
    16     16     24      8      7     22 
    17     17     13     10      9      8 
    18     18     34     13     10     12 
    19     19     29     11     10      9 
    20     20     35     13     10     11 
    21     21     23      8      9     10 
    22     22     26      9      8      7 
    23     23     24      8      9     10 
    24     24     20      6      5     18 
    25     25     23      8      7     22 
    26     26     24      8      7     21 
    27     27     32     12     10     13 
    28     28     31     12     10     14 
    29     29     17      2      1     16 
    30     30     35     13     10      9 
    31     31     30     12     10     13 
    32     32     18      5      3      2 
    33     33     33     13     10     11 
    34     34     27     11     10     12 
    35     35     33     13     10     14 
    36     36     35     13     10     12 
    37     37     26      9     10     11 
    38     38     25      9     10     12 
    39     39     23      8      7      6 
    40     40     25      9     10     11 
    41     41     22      7      8      9 
    42     42      6      5      3      4 
    43     43     32     12     10     11 
    44     44     21      7      6      5 
    45     45     14     10      9      8 
    46     46     17      2      1     15 
    47     47     29     11     10     12 
    48     48     22      7      6      5 
    49     49     19      6      7      8 
    50     50     25      9      8     23 
    51     51     17      2      3      4 
    52     52     26      9     10     14 
    53     53     34     13     10     14 
    54     54     27     11     10     14 
    55     55     28     11     10     13 
    56     56     22      7      6     19 
    57     57     34     13     10     11 
    58     58     33     13     10     12 
    59     59     25      9      8      7 
    60     60     21      7      6     20 
    61     61     31     12     10      9 
    62     62     35     13     10     14 
    63     63     28     11     10      9 
    64     64     20      6      7      8 
    65     65     24      8      7      6 
    66     66     26      9      8     24 
    67     67     21      7      8      9 
    68     68     23      8      7     21 
    69     69     26      9      8     23 
    70     70     19      6      5     18 
    71     71     31     12     10     13 
    72     72     30     12     10     14 
    73     73     28     11     10     14 
    74     74     29     11     10     13 
    75     75     28     11     10     12 
    76     76     20      6      5      3 
    77     77     18      5      6      7 
    78     78     26      9     10     12 
    79     79     25      9     10     13 
    80     80     27     11     10     13 
    81     81     25      9      8     24 
    82     82      5      3      2      1 
    83     83     31     12     10     11 
    84     84     12     10      9      8 
    85     85     32     12     10     14 
    86     86     17      2      3      5 
    87     87     32     12     10      9 
    88     88     30     12     10     11 
    89     89     18      5      3      4 
    90     90     26      9     10     13 
    91     91     25      9     10     14 
    92     92     16      1      2      3 
    93     93     34     13     10      9 

Impropers

     1      1      3      2      4      5 
     2      2     10      9     11     12 
     3      3     10      9     11     13 
     4      4     10      9     11     14 
     5      5      1      2     15     16 
     6      6      2     17      3      1 
     7      7      5     18      3      6 
     8      8      6     19      5      7 
     9      9      6     20      5      7 
    10     10      7     21      6      8 
    11     11      7      8     22      6 
    12     12      8      9      7     23 
    13     13      8      9      7     24 
    14     14      9     25     10      8 
    15     15      9     26     10      8 
    16     16     11     10     28     27 
    17     17     11     10     29     27 
    18     18     12     10     30     31 
    19     19     12     10     30     32 
    20     20     13     33     34     10 
    21     21     13     33     10     35 

