LAMMPS data file Created by LigParGen - (Written by Leela S. Dodda)

      15 atoms
      15 bonds
      24 angles
      30 dihedrals
       8 impropers
 
      15 atom types
      15 bond types
      24 angle types
      30 dihedral types
       8 improper types
 
   -4.386940    45.613060 xlo xhi
    0.070720    50.070720 ylo yhi
   -2.173360    47.826640 zlo zhi

Masses

       1     12.011  
       2     12.011  
       3     12.011  
       4     12.011  
       5     12.011  
       6     12.011  
       7     12.011  
       8      1.008  
       9      1.008  
      10      1.008  
      11      1.008  
      12      1.008  
      13      1.008  
      14      1.008  
      15      1.008  

Pair Coeffs 

       1      0.066  3.5000000 
       2      0.070  3.5500000 
       3      0.070  3.5500000 
       4      0.070  3.5500000 
       5      0.070  3.5500000 
       6      0.070  3.5500000 
       7      0.070  3.5500000 
       8      0.030  2.5000000 
       9      0.030  2.5000000 
      10      0.030  2.5000000 
      11      0.030  2.4200000 
      12      0.030  2.4200000 
      13      0.030  2.4200000 
      14      0.030  2.4200000 
      15      0.030  2.4200000 

Bond Coeffs 

       1   317.0000     1.5100 
       2   469.0000     1.4000 
       3   469.0000     1.4000 
       4   469.0000     1.4000 
       5   469.0000     1.4000 
       6   469.0000     1.4000 
       7   340.0000     1.0900 
       8   340.0000     1.0900 
       9   340.0000     1.0900 
      10   367.0000     1.0800 
      11   367.0000     1.0800 
      12   367.0000     1.0800 
      13   367.0000     1.0800 
      14   367.0000     1.0800 
      15   469.0000     1.4000 

Angle Coeffs 

       1     70.000    120.000
       2     63.000    120.000
       3     63.000    120.000
       4     63.000    120.000
       5     70.000    120.000
       6     35.000    109.500
       7     35.000    109.500
       8     35.000    109.500
       9     35.000    120.000
      10     35.000    120.000
      11     35.000    120.000
      12     35.000    120.000
      13     35.000    120.000
      14     35.000    120.000
      15     35.000    120.000
      16     35.000    120.000
      17     33.000    107.800
      18     33.000    107.800
      19     63.000    120.000
      20     33.000    107.800
      21     35.000    120.000
      22     63.000    120.000
      23     35.000    120.000
      24     63.000    120.000

Dihedral Coeffs  

       1      0.000      7.250      0.000      0.000 
       2      0.000      7.250      0.000      0.000 
       3      0.000      7.250      0.000      0.000 
       4      0.000      0.000      0.000      0.000 
       5      0.000      7.250      0.000      0.000 
       6      0.000      7.250      0.000      0.000 
       7      0.000      7.250      0.000      0.000 
       8      0.000      7.250      0.000      0.000 
       9      0.000      0.000      0.000      0.000 
      10      0.000      0.000      0.000      0.000 
      11      0.000      7.250      0.000      0.000 
      12      0.000      7.250      0.000      0.000 
      13      0.000      7.250      0.000      0.000 
      14      0.000      7.250      0.000      0.000 
      15      0.000      7.250      0.000      0.000 
      16      0.000      7.250      0.000      0.000 
      17      0.000      7.250      0.000      0.000 
      18      0.000      7.250      0.000      0.000 
      19      0.000      0.000      0.000      0.000 
      20      0.000      7.250      0.000      0.000 
      21      0.000      7.250      0.000      0.000 
      22      0.000      7.250      0.000      0.000 
      23      0.000      0.000      0.000      0.000 
      24      0.000      0.000      0.000      0.000 
      25      0.000      7.250      0.000      0.000 
      26      0.000      7.250      0.000      0.000 
      27      0.000      7.250      0.000      0.000 
      28      0.000      7.250      0.000      0.000 
      29      0.000      7.250      0.000      0.000 
      30      0.000      7.250      0.000      0.000 

Improper Coeffs 

       1      2.500      -1       2 
       2      0.000      -1       2 
       3      0.000      -1       2 
       4      2.500      -1       2 
       5      2.500      -1       2 
       6      2.500      -1       2 
       7      2.500      -1       2 
       8      2.500      -1       2 

Atoms 

     1      1      1 -0.19840000    1.000  1.00000  0.00000
     2      1      2 -0.08030000   -0.500  1.00000  0.00000
     3      1      3 -0.14680000   -1.220  1.00000  1.20063
     4      1      4 -0.14450000   -2.616  0.99848  1.18602
     5      1      5 -0.15300000   -3.300  0.99695 -0.02789
     6      1      6 -0.14370000   -2.589  0.99694 -1.22619
     7      1      7 -0.14870000   -1.198  0.99846 -1.21451
     8      1      8 0.09330000    1.401  1.07882  1.01573
     9      1      9 0.09330000    1.378  1.85191 -0.57447
    10      1     10 0.09330000    1.375  0.07072 -0.44090
    11      1     11 0.14740000   -0.699  1.00237  2.15510
    12      1     12 0.14730000   -3.167  0.99730  2.12260
    13      1     13 0.14680000   -4.387  0.99457 -0.03926
    14      1     14 0.14670000   -3.122  0.99455 -2.17336
    15      1     15 0.14730000   -0.655  0.99727 -2.15674

Bonds 

     1      1      2      1
     2      2      3      2
     3      3      4      3
     4      4      5      4
     5      5      6      5
     6      6      7      2
     7      7      8      1
     8      8      9      1
     9      9     10      1
    10     10     11      3
    11     11     12      4
    12     12     13      5
    13     13     14      6
    14     14     15      7
    15     15      7      6

Angles 

     1      1      1      2      3
     2      2      2      3      4
     3      3      3      4      5
     4      4      4      5      6
     5      5      1      2      7
     6      6      2      1      8
     7      7      2      1      9
     8      8      2      1     10
     9      9      2      3     11
    10     10      3      4     12
    11     11      4      5     13
    12     12      5      6     14
    13     13      2      7     15
    14     14      7      6     14
    15     15      4      3     11
    16     16      5      4     12
    17     17      8      1     10
    18     18      9      1     10
    19     19      5      6      7
    20     20      8      1      9
    21     21      6      5     13
    22     22      2      7      6
    23     23      6      7     15
    24     24      3      2      7

Dihedrals

     1      1      4      3      2      1 
     2      2      5      4      3      2 
     3      3      6      5      4      3 
     4      4      8      1      2      3 
     5      5      6      7      2      1 
     6      6     11      3      2      1 
     7      7     15      7      6      5 
     8      8      6      7      2      3 
     9      9      9      1      2      3 
    10     10      9      1      2      7 
    11     11     13      5      4     12 
    12     12      7      6      5      4 
    13     13     11      3      4      5 
    14     14     13      5      6      7 
    15     15     14      6      5     13 
    16     16     14      6      7      2 
    17     17     11      3      2      7 
    18     18     15      7      2      3 
    19     19     10      1      2      7 
    20     20     12      4      5      6 
    21     21     14      6      5      4 
    22     22      5      6      7      2 
    23     23      8      1      2      7 
    24     24     10      1      2      3 
    25     25      7      2      3      4 
    26     26     12      4      3     11 
    27     27     15      7      6     14 
    28     28     12      4      3      2 
    29     29     13      5      4      3 
    30     30     15      7      2      1 

Impropers

     1      1      2      1      3      7 
     2      2      1      9      8      2 
     3      3      1     10      8      2 
     4      4      3      2     11      4 
     5      5      4      3     12      5 
     6      6      5      4     13      6 
     7      7      6      5     14      7 
     8      8      7      2     15      6 

