LAMMPS data file Created by LigParGen - (Written by Leela S. Dodda)

       5 atoms
       4 bonds
       6 angles
       0 dihedrals
       2 impropers
 
       5 atom types
       4 bond types
       6 angle types
       0 dihedral types
       2 improper types
 
   -1.403880    48.596120 xlo xhi
    0.105520    50.105520 ylo yhi
   -0.518180    49.481820 zlo zhi

Masses

       1     35.450  
       2     12.011  
       3     35.450  
       4      1.008  
       5      1.008  

Pair Coeffs 

       1      0.300  3.4000000 
       2      0.066  3.5000000 
       3      0.300  3.4000000 
       4      0.030  2.5000000 
       5      0.030  2.5000000 

Bond Coeffs 

       1   245.0000     1.7810 
       2   245.0000     1.7810 
       3   340.0000     1.0900 
       4   340.0000     1.0900 

Angle Coeffs 

       1     78.000    111.700
       2     51.000    107.600
       3     51.000    107.600
       4     51.000    107.600
       5     51.000    107.600
       6     33.000    107.800

Dihedral Coeffs  


Improper Coeffs 

       1      0.000      -1       2 
       2      0.000      -1       2 

Atoms 

     1      1      1 -0.13060000    1.000  1.00000  0.00000
     2      1      2 -0.02850000   -0.767  1.00000  0.00000
     3      1      3 -0.13060000   -1.404  1.00000  1.64857
     4      1      4 0.14490000   -1.122  0.10552 -0.51818
     5      1      5 0.14490000   -1.122  1.89443 -0.51815

Bonds 

     1      1      2      1
     2      2      3      2
     3      3      4      2
     4      4      5      2

Angles 

     1      1      1      2      3
     2      2      1      2      4
     3      3      1      2      5
     4      4      3      2      4
     5      5      3      2      5
     6      6      4      2      5

Dihedrals


Impropers

     1      1      2      1      3      4 
     2      2      2      1      3      5 

