LAMMPS data file Created by LigParGen - (Written by Leela S. Dodda)

       6 atoms
       5 bonds
       7 angles
       3 dihedrals
       2 impropers
 
       6 atom types
       5 bond types
       7 angle types
       3 dihedral types
       2 improper types
 
   -0.146320    49.853680 xlo xhi
    0.069480    50.069480 ylo yhi
   -0.615320    49.384680 zlo zhi

Masses

       1     12.011  
       2     14.007  
       3     12.011  
       4      1.008  
       5      1.008  
       6      1.008  

Pair Coeffs 

       1      0.066  3.3000000 
       2      0.170  3.2000000 
       3      0.066  3.5000000 
       4      0.030  2.5000000 
       5      0.030  2.5000000 
       6      0.030  2.5000000 

Bond Coeffs 

       1   650.0000     1.1570 
       2   390.0000     1.4700 
       3   340.0000     1.0900 
       4   340.0000     1.0900 
       5   340.0000     1.0900 

Angle Coeffs 

       1    150.000    180.000
       2     35.000    108.500
       3     35.000    108.500
       4     35.000    108.500
       5     33.000    107.800
       6     33.000    107.800
       7     33.000    107.800

Dihedral Coeffs  

       1      0.000      0.000      0.000      0.000 
       2      0.000      0.000      0.000      0.000 
       3      0.000      0.000      0.000      0.000 

Improper Coeffs 

       1      0.000      -1       2 
       2      0.000      -1       2 

Atoms 

     1      1      1 0.11330000    1.000  1.00000  0.00000
     2      1      2 -0.35820000   -0.146  1.00000  0.00000
     3      1      3 -0.10790000    2.540  1.00000 -0.00195
     4      1      4 0.11760000    2.895  1.80184 -0.61532
     5      1      5 0.11760000    2.898  1.12949  0.99784
     6      1      6 0.11760000    2.895  0.06948 -0.39203

Bonds 

     1      1      2      1
     2      2      3      1
     3      3      4      3
     4      4      5      3
     5      5      6      3

Angles 

     1      1      2      1      3
     2      2      1      3      4
     3      3      1      3      5
     4      4      1      3      6
     5      5      5      3      6
     6      6      4      3      6
     7      7      4      3      5

Dihedrals

     1      1      4      3      1      2 
     2      2      5      3      1      2 
     3      3      6      3      1      2 

Impropers

     1      1      3      1      4      5 
     2      2      3      1      4      6 

