LAMMPS data file Created by LigParGen - (Written by Leela S. Dodda)

       5 atoms
       4 bonds
       6 angles
       0 dihedrals
       2 impropers
 
       5 atom types
       4 bond types
       6 angle types
       0 dihedral types
       2 improper types
 
   -0.767000    49.233000 xlo xhi
    0.105470    50.105470 ylo yhi
   -1.032470    48.967530 zlo zhi

Masses

       1     12.011  
       2     35.450  
       3      1.008  
       4      1.008  
       5      1.008  

Pair Coeffs 

       1      0.066  3.5000000 
       2      0.300  3.4000000 
       3      0.030  2.5000000 
       4      0.030  2.5000000 
       5      0.030  2.5000000 

Bond Coeffs 

       1   245.0000     1.7810 
       2   340.0000     1.0900 
       3   340.0000     1.0900 
       4   340.0000     1.0900 

Angle Coeffs 

       1     51.000    107.600
       2     51.000    107.600
       3     51.000    107.600
       4     33.000    107.800
       5     33.000    107.800
       6     33.000    107.800

Dihedral Coeffs  


Improper Coeffs 

       1      0.000      -1       2 
       2      0.000      -1       2 

Atoms 

     1      1      1 -0.15190000    1.000  1.00000  0.00000
     2      1      2 -0.17740000   -0.767  1.00000  0.00000
     3      1      3 0.10980000    1.356  1.00000 -1.03247
     4      1      4 0.10980000    1.356  0.10547  0.51545
     5      1      5 0.10980000    1.356  1.89450  0.51544

Bonds 

     1      1      2      1
     2      2      3      1
     3      3      4      1
     4      4      5      1

Angles 

     1      1      2      1      3
     2      2      2      1      4
     3      3      2      1      5
     4      4      3      1      4
     5      5      4      1      5
     6      6      3      1      5

Dihedrals


Impropers

     1      1      1      2      3      4 
     2      2      1      2      3      5 

