LAMMPS data file Created by LigParGen - (Written by Leela S. Dodda)

       5 atoms
       4 bonds
       6 angles
       0 dihedrals
       2 impropers
 
       5 atom types
       4 bond types
       6 angle types
       0 dihedral types
       2 improper types
 
   -1.393990    48.606010 xlo xhi
    0.088170    50.088170 ylo yhi
   -0.897860    49.102140 zlo zhi

Masses

       1     35.450  
       2     12.011  
       3     35.450  
       4     35.450  
       5      1.008  

Pair Coeffs 

       1      0.300  3.4000000 
       2      0.066  3.5000000 
       3      0.300  3.4000000 
       4      0.300  3.4000000 
       5      0.030  2.5000000 

Bond Coeffs 

       1   245.0000     1.7810 
       2   245.0000     1.7810 
       3   245.0000     1.7810 
       4   340.0000     1.0900 

Angle Coeffs 

       1     78.000    111.700
       2     78.000    111.700
       3     51.000    107.600
       4     78.000    111.700
       5     51.000    107.600
       6     51.000    107.600

Dihedral Coeffs  


Improper Coeffs 

       1      0.000      -1       2 
       2      0.000      -1       2 

Atoms 

     1      1      1 -0.18730000   1.017591      0.985495     -0.008086 
     2      1      2 0.37930000   -0.768200      1.008151      0.004970
     3      1      3 -0.18730000  -1.405924      0.986085      1.672639 
     4      1      4 -0.18730000  -1.407652      2.397366     -0.916921 
     5      1      5 0.18260000   -1.108815      0.105903     -0.486601

Bonds 

     1      1      2      1
     2      2      3      2
     3      3      4      2
     4      4      5      2

Angles 

     1      1      1      2      3
     2      2      1      2      4
     3      3      1      2      5
     4      4      3      2      4
     5      5      3      2      5
     6      6      4      2      5

Dihedrals


Impropers

     1      1      2      1      3      4 
     2      2      2      1      3      5 

