LAMMPS data file Created by LigParGen - (Written by Leela S. Dodda)

      74 atoms
      77 bonds
     157 angles
     259 dihedrals
      49 impropers
 
      74 atom types
      77 bond types
     157 angle types
     259 dihedral types
      49 improper types
 
   -7.836790    42.163210 xlo xhi
   -4.440000    45.560000 ylo yhi
   -8.211260    41.788740 zlo zhi

Masses

       1     12.011  
       2     12.011  
       3      1.008  
       4     12.011  
       5     12.011  
       6     12.011  
       7     12.011  
       8     12.011  
       9     12.011  
      10     12.011  
      11      1.008  
      12     12.011  
      13     12.011  
      14     12.011  
      15      1.008  
      16     12.011  
      17     12.011  
      18     12.011  
      19     12.011  
      20      1.008  
      21     12.011  
      22      1.008  
      23     12.011  
      24     12.011  
      25     12.011  
      26     12.011  
      27     12.011  
      28     12.011  
      29     12.011  
      30      1.008  
      31     12.011  
      32     15.999  
      33     12.011  
      34     12.011  
      35      1.008  
      36      1.008  
      37      1.008  
      38      1.008  
      39      1.008  
      40      1.008  
      41      1.008  
      42      1.008  
      43      1.008  
      44      1.008  
      45      1.008  
      46      1.008  
      47      1.008  
      48      1.008  
      49      1.008  
      50      1.008  
      51      1.008  
      52      1.008  
      53      1.008  
      54      1.008  
      55      1.008  
      56      1.008  
      57      1.008  
      58      1.008  
      59      1.008  
      60      1.008  
      61      1.008  
      62      1.008  
      63      1.008  
      64      1.008  
      65      1.008  
      66      1.008  
      67      1.008  
      68      1.008  
      69      1.008  
      70      1.008  
      71      1.008  
      72      1.008  
      73      1.008  
      74      1.008  

Pair Coeffs 

       1      0.066  3.5000000 
       2      0.066  3.5000000 
       3      0.030  2.5000000 
       4      0.066  3.5000000 
       5      0.066  3.5000000 
       6      0.066  3.5000000 
       7      0.066  3.5000000 
       8      0.066  3.5000000 
       9      0.066  3.5000000 
      10      0.066  3.5000000 
      11      0.030  2.5000000 
      12      0.066  3.5000000 
      13      0.066  3.5000000 
      14      0.066  3.5000000 
      15      0.030  2.5000000 
      16      0.066  3.5000000 
      17      0.066  3.5000000 
      18      0.066  3.5000000 
      19      0.066  3.5000000 
      20      0.030  2.5000000 
      21      0.066  3.5000000 
      22      0.030  2.5000000 
      23      0.066  3.5000000 
      24      0.076  3.5500000 
      25      0.076  3.5500000 
      26      0.066  3.5000000 
      27      0.066  3.5000000 
      28      0.066  3.5000000 
      29      0.066  3.5000000 
      30      0.030  2.5000000 
      31      0.066  3.5000000 
      32      0.170  3.1200000 
      33      0.066  3.5000000 
      34      0.066  3.5000000 
      35      0.030  2.5000000 
      36      0.030  2.5000000 
      37      0.030  2.5000000 
      38      0.030  2.5000000 
      39      0.030  2.5000000 
      40      0.030  2.5000000 
      41      0.030  2.5000000 
      42      0.030  2.5000000 
      43      0.030  2.5000000 
      44      0.030  2.5000000 
      45      0.030  2.5000000 
      46      0.030  2.5000000 
      47      0.030  2.5000000 
      48      0.030  2.5000000 
      49      0.030  2.5000000 
      50      0.030  2.5000000 
      51      0.030  2.5000000 
      52      0.030  2.5000000 
      53      0.030  2.5000000 
      54      0.030  2.5000000 
      55      0.030  2.5000000 
      56      0.030  2.5000000 
      57      0.030  2.5000000 
      58      0.030  2.5000000 
      59      0.030  2.5000000 
      60      0.030  2.5000000 
      61      0.030  2.4200000 
      62      0.030  2.5000000 
      63      0.030  2.5000000 
      64      0.030  2.5000000 
      65      0.030  2.5000000 
      66      0.030  2.5000000 
      67      0.030  2.5000000 
      68      0.000  0.0000000 
      69      0.030  2.5000000 
      70      0.030  2.5000000 
      71      0.030  2.5000000 
      72      0.030  2.5000000 
      73      0.030  2.5000000 
      74      0.030  2.5000000 

Bond Coeffs 

       1   268.0000     1.5290 
       2   340.0000     1.0900 
       3   268.0000     1.5290 
       4   268.0000     1.5290 
       5   268.0000     1.5290 
       6   268.0000     1.5290 
       7   268.0000     1.5290 
       8   268.0000     1.5290 
       9   268.0000     1.5290 
      10   340.0000     1.0900 
      11   268.0000     1.5290 
      12   268.0000     1.5290 
      13   268.0000     1.5290 
      14   340.0000     1.0900 
      15   268.0000     1.5290 
      16   268.0000     1.5290 
      17   268.0000     1.5290 
      18   268.0000     1.5290 
      19   340.0000     1.0900 
      20   268.0000     1.5290 
      21   340.0000     1.0900 
      22   268.0000     1.5290 
      23   317.0000     1.5100 
      24   549.0000     1.3400 
      25   268.0000     1.5290 
      26   268.0000     1.5290 
      27   268.0000     1.5290 
      28   268.0000     1.5290 
      29   340.0000     1.0900 
      30   317.0000     1.5100 
      31   320.0000     1.4100 
      32   268.0000     1.5290 
      33   268.0000     1.5290 
      34   340.0000     1.0900 
      35   340.0000     1.0900 
      36   340.0000     1.0900 
      37   340.0000     1.0900 
      38   340.0000     1.0900 
      39   340.0000     1.0900 
      40   340.0000     1.0900 
      41   340.0000     1.0900 
      42   340.0000     1.0900 
      43   340.0000     1.0900 
      44   340.0000     1.0900 
      45   340.0000     1.0900 
      46   340.0000     1.0900 
      47   340.0000     1.0900 
      48   340.0000     1.0900 
      49   340.0000     1.0900 
      50   340.0000     1.0900 
      51   340.0000     1.0900 
      52   340.0000     1.0900 
      53   340.0000     1.0900 
      54   340.0000     1.0900 
      55   340.0000     1.0900 
      56   340.0000     1.0900 
      57   340.0000     1.0900 
      58   340.0000     1.0900 
      59   340.0000     1.0900 
      60   367.0000     1.0800 
      61   340.0000     1.0900 
      62   340.0000     1.0900 
      63   340.0000     1.0900 
      64   340.0000     1.0900 
      65   340.0000     1.0900 
      66   340.0000     1.0900 
      67   553.0000     0.9450 
      68   340.0000     1.0900 
      69   340.0000     1.0900 
      70   340.0000     1.0900 
      71   340.0000     1.0900 
      72   340.0000     1.0900 
      73   340.0000     1.0900 
      74   268.0000     1.5290 
      75   268.0000     1.5290 
      76   317.0000     1.5100 
      77   268.0000     1.5290 

Angle Coeffs 

       1     37.500    110.700
       2     58.350    112.700
       3     58.350    112.700
       4     58.350    112.700
       5     58.350    112.700
       6     58.350    112.700
       7     58.350    112.700
       8     58.350    112.700
       9     37.500    110.700
      10     58.350    112.700
      11     58.350    112.700
      12     58.350    112.700
      13     37.500    110.700
      14     58.350    112.700
      15     58.350    112.700
      16     58.350    112.700
      17     58.350    112.700
      18     37.500    110.700
      19     58.350    112.700
      20     37.500    110.700
      21     58.350    112.700
      22     63.000    111.100
      23     70.000    124.000
      24     58.350    112.700
      25     58.350    112.700
      26     58.350    112.700
      27     58.350    112.700
      28     37.500    110.700
      29     70.000    124.000
      30     50.000    109.500
      31     58.350    112.700
      32     58.350    112.700
      33     37.500    110.700
      34     37.500    110.700
      35     37.500    110.700
      36     37.500    110.700
      37     37.500    110.700
      38     37.500    110.700
      39     37.500    110.700
      40     37.500    110.700
      41     37.500    110.700
      42     37.500    110.700
      43     37.500    110.700
      44     37.500    110.700
      45     37.500    110.700
      46     37.500    110.700
      47     37.500    110.700
      48     37.500    110.700
      49     37.500    110.700
      50     37.500    110.700
      51     37.500    110.700
      52     37.500    110.700
      53     37.500    110.700
      54     37.500    110.700
      55     37.500    110.700
      56     37.500    110.700
      57     37.500    110.700
      58     37.500    110.700
      59     60.430    118.760
      60     37.500    110.700
      61     37.500    110.700
      62     37.500    110.700
      63     37.500    110.700
      64     35.000    109.500
      65     35.000    109.500
      66     55.000    108.500
      67     37.500    110.700
      68     37.500    110.700
      69     37.500    110.700
      70     37.500    110.700
      71     37.500    110.700
      72     37.500    110.700
      73     37.500    110.700
      74     37.500    110.700
      75     37.500    110.700
      76     37.500    110.700
      77     58.350    112.700
      78     37.500    110.700
      79     37.500    110.700
      80     37.500    110.700
      81     37.500    110.700
      82     63.000    111.100
      83     37.500    110.700
      84     58.350    112.700
      85     33.000    107.800
      86     33.000    107.800
      87     33.000    107.800
      88     63.000    111.100
      89     33.000    107.800
      90     33.000    107.800
      91     37.500    110.700
      92     33.000    107.800
      93     33.000    107.800
      94     33.000    107.800
      95     37.500    110.700
      96     33.000    107.800
      97     33.000    107.800
      98     37.500    110.700
      99     33.000    107.800
     100     35.000    109.500
     101     37.500    110.700
     102     33.000    107.800
     103     33.000    107.800
     104     37.500    110.700
     105     37.500    110.700
     106     37.500    110.700
     107     35.000    109.500
     108     58.350    112.700
     109     33.000    107.800
     110     37.500    110.700
     111     63.000    111.100
     112     58.350    112.700
     113     33.000    107.800
     114     37.500    110.700
     115     33.000    107.800
     116     58.350    112.700
     117     33.000    107.800
     118     33.000    107.800
     119     58.350    112.700
     120     58.350    112.700
     121     35.000    109.500
     122     37.500    110.700
     123     37.500    110.700
     124     37.500    110.700
     125     37.500    110.700
     126     37.500    110.700
     127     37.500    110.700
     128     37.500    110.700
     129     50.000    109.500
     130     70.000    130.000
     131     58.350    112.700
     132     37.500    110.700
     133     33.000    107.800
     134     33.000    107.800
     135     37.500    110.700
     136     58.350    112.700
     137     33.000    107.800
     138     35.000    120.000
     139     63.000    111.100
     140     33.000    107.800
     141     58.350    112.700
     142     58.350    112.700
     143     58.350    112.700
     144     58.350    112.700
     145     33.000    107.800
     146     33.000    107.800
     147     33.000    107.800
     148     37.500    110.700
     149     33.000    107.800
     150     37.500    110.700
     151     58.350    112.700
     152     37.500    110.700
     153     70.000    124.000
     154     37.500    110.700
     155     37.500    110.700
     156     58.350    112.700
     157     37.500    110.700

Dihedral Coeffs  

       1      1.300     -0.200      0.200      0.000 
       2      1.300     -0.200      0.200      0.000 
       3      1.300     -0.200      0.200      0.000 
       4      1.300     -0.200      0.200      0.000 
       5      0.000      0.000      0.300      0.000 
       6      1.300     -0.200      0.200      0.000 
       7      1.300     -0.200      0.200      0.000 
       8      0.000      0.000      0.300      0.000 
       9      1.300     -0.200      0.200      0.000 
      10      1.300     -0.200      0.200      0.000 
      11      0.000      0.000      0.300      0.000 
      12      1.300     -0.200      0.200      0.000 
      13      0.346      0.405     -0.904      0.000 
      14      1.300     -0.200      0.200      0.000 
      15      1.300     -0.200      0.200      0.000 
      16      0.000      0.000      0.300      0.000 
      17      0.000      0.000      0.300      0.000 
      18      0.000      0.000      0.300      0.000 
      19      0.000      0.000      0.300      0.000 
      20     -0.356     -0.174      0.492      0.000 
      21      0.000      0.000      0.300      0.000 
      22      0.000      0.000      0.300      0.000 
      23      0.000      0.000      0.366      0.000 
      24      0.000      0.000      0.300      0.000 
      25      1.300     -0.200      0.200      0.000 
      26      0.000      0.000      0.300      0.000 
      27      0.000      0.000      0.300      0.000 
      28      1.300     -0.200      0.200      0.000 
      29      0.000      0.000      0.300      0.000 
      30      0.000      0.000      0.300      0.000 
      31      0.000      0.000      0.300      0.000 
      32      0.000      0.000      0.300      0.000 
      33      0.000      0.000      0.300      0.000 
      34      1.300     -0.200      0.200      0.000 
      35      0.000      0.000      0.300      0.000 
      36      0.000      0.000      0.300      0.000 
      37      0.000      0.000      0.300      0.000 
      38      0.000      0.000      0.300      0.000 
      39      1.300     -0.200      0.200      0.000 
      40      0.000      0.000      0.300      0.000 
      41      1.300     -0.200      0.200      0.000 
      42      0.000      0.000      0.300      0.000 
      43      0.000      0.000      0.366      0.000 
      44      0.000      0.000      0.300      0.000 
      45      0.000      0.000      0.300      0.000 
      46      0.000      0.000      0.300      0.000 
      47      1.300     -0.200      0.200      0.000 
      48      0.000      0.000      0.300      0.000 
      49      2.817     -0.169      0.543      0.000 
      50      0.000      0.000      0.468      0.000 
      51      0.000      0.000      0.300      0.000 
      52      0.000      0.000      0.300      0.000 
      53      0.000      0.000      0.300      0.000 
      54      0.346      0.405     -0.904      0.000 
      55      2.817     -0.169      0.543      0.000 
      56      0.000      0.000      0.300      0.000 
      57      0.000      0.000      0.300      0.000 
      58      0.000      0.000      0.300      0.000 
      59      0.000      0.000      0.300      0.000 
      60      0.000      0.000      0.300      0.000 
      61      0.000      0.000      0.300      0.000 
      62      0.000      0.000      0.300      0.000 
      63      1.300     -0.200      0.200      0.000 
      64      0.000     -8.000      0.000      0.000 
      65      0.000      0.000      0.300      0.000 
      66      0.000      0.000      0.300      0.000 
      67      0.000      0.000      0.300      0.000 
      68      0.000      0.000      0.300      0.000 
      69      0.000      0.000      0.300      0.000 
      70      0.000      0.000      0.300      0.000 
      71      0.000      0.000      0.300      0.000 
      72      1.300     -0.200      0.200      0.000 
      73      0.000      0.000      0.300      0.000 
      74      0.000      0.000      0.300      0.000 
      75      0.000      0.000      0.300      0.000 
      76      1.300     -0.200      0.200      0.000 
      77      1.300     -0.200      0.200      0.000 
      78      0.000      0.000      0.300      0.000 
      79      0.000      0.000      0.300      0.000 
      80      1.300     -0.200      0.200      0.000 
      81      0.000      0.000      0.300      0.000 
      82      0.000      0.000      0.300      0.000 
      83      0.000      0.000      0.300      0.000 
      84      1.300     -0.200      0.200      0.000 
      85      0.346      0.405     -0.904      0.000 
      86      0.000      0.000      0.300      0.000 
      87      1.300     -0.200      0.200      0.000 
      88      0.000      0.000      0.300      0.000 
      89      0.000      0.000      0.300      0.000 
      90      0.000      0.000      0.300      0.000 
      91      0.000      0.000      0.318      0.000 
      92      0.000      0.000      0.300      0.000 
      93      0.000      0.000      0.300      0.000 
      94      1.300     -0.200      0.200      0.000 
      95      0.000      0.000      0.300      0.000 
      96      1.300     -0.200      0.200      0.000 
      97      0.000      0.000      0.300      0.000 
      98      0.000      0.000      0.300      0.000 
      99      0.000      0.000      0.300      0.000 
     100      1.300     -0.200      0.200      0.000 
     101      0.000      0.000      0.300      0.000 
     102      0.000      0.000      0.300      0.000 
     103      1.300     -0.200      0.200      0.000 
     104      0.000      0.000      0.300      0.000 
     105      0.000      0.000      0.300      0.000 
     106      0.000      0.000      0.300      0.000 
     107      0.000      0.000      0.318      0.000 
     108      0.000      0.000      0.300      0.000 
     109      0.000      0.000     -0.372      0.000 
     110      1.300     -0.200      0.200      0.000 
     111      0.000      0.000      0.300      0.000 
     112      0.000      0.000      0.300      0.000 
     113      0.000      0.000      0.300      0.000 
     114      1.300     -0.200      0.200      0.000 
     115      0.000      0.000      0.300      0.000 
     116      0.000      0.000      0.300      0.000 
     117      0.000      0.000      0.300      0.000 
     118      0.000     14.000      0.000      0.000 
     119      0.000      0.000      0.300      0.000 
     120      1.300     -0.200      0.200      0.000 
     121      0.000      0.000      0.300      0.000 
     122      0.000      0.000      0.300      0.000 
     123     -1.552      0.000      0.000      0.000 
     124      1.300     -0.200      0.200      0.000 
     125      0.000      0.000      0.300      0.000 
     126      0.000      0.000      0.300      0.000 
     127      0.000      0.000      0.300      0.000 
     128      0.000      0.000      0.300      0.000 
     129      0.000      0.000      0.300      0.000 
     130      0.000      0.000      0.300      0.000 
     131      1.300     -0.200      0.200      0.000 
     132      0.346      0.405     -0.904      0.000 
     133      0.000      0.000      0.300      0.000 
     134      0.000      0.000      0.300      0.000 
     135      0.000      0.000      0.300      0.000 
     136      1.300     -0.200      0.200      0.000 
     137      1.300     -0.200      0.200      0.000 
     138      0.000      0.000      0.300      0.000 
     139      0.000      0.000      0.300      0.000 
     140      0.000      0.000      0.366      0.000 
     141      0.000      0.000      0.300      0.000 
     142      0.000      0.000      0.300      0.000 
     143      0.000      0.000      0.300      0.000 
     144      0.000      0.000      0.468      0.000 
     145      0.000      0.000      0.300      0.000 
     146      0.000      0.000      0.300      0.000 
     147      0.000      0.000      0.300      0.000 
     148      0.000      0.000      0.300      0.000 
     149      0.000      0.000      0.300      0.000 
     150      0.000      0.000      0.300      0.000 
     151      1.300     -0.200      0.200      0.000 
     152      0.000      0.000      0.352      0.000 
     153      0.000      0.000      0.300      0.000 
     154     -0.356     -0.174      0.492      0.000 
     155     -1.552      0.000      0.000      0.000 
     156      0.000      0.000      0.300      0.000 
     157      0.000      0.000      0.300      0.000 
     158      0.000      0.000      0.300      0.000 
     159      0.000      0.000      0.300      0.000 
     160      0.000      0.000      0.300      0.000 
     161      0.000      0.000      0.300      0.000 
     162      0.000      0.000      0.468      0.000 
     163      0.000      0.000      0.300      0.000 
     164      1.300     -0.200      0.200      0.000 
     165      1.300     -0.200      0.200      0.000 
     166      0.000      0.000      0.366      0.000 
     167      0.000      0.000      0.300      0.000 
     168      0.000      0.000      0.300      0.000 
     169      0.000      0.000      0.300      0.000 
     170      0.000      0.000      0.300      0.000 
     171      0.000      0.000      0.300      0.000 
     172      0.000      0.000      0.300      0.000 
     173      0.000      0.000     -0.372      0.000 
     174      0.000      0.000      0.366      0.000 
     175      0.000      0.000      0.300      0.000 
     176      0.000      0.000      0.366      0.000 
     177      0.000      0.000      0.300      0.000 
     178      0.000      0.000      0.300      0.000 
     179      1.300     -0.200      0.200      0.000 
     180      0.000      0.000      0.300      0.000 
     181      0.000      0.000      0.300      0.000 
     182      0.000      0.000      0.300      0.000 
     183      0.000      0.000      0.300      0.000 
     184      0.000      0.000      0.300      0.000 
     185      0.000      0.000      0.300      0.000 
     186      0.000      0.000      0.300      0.000 
     187      0.000      0.000      0.300      0.000 
     188      0.000      0.000      0.300      0.000 
     189      1.300     -0.200      0.200      0.000 
     190      0.000      0.000      0.300      0.000 
     191      1.300     -0.200      0.200      0.000 
     192      2.817     -0.169      0.543      0.000 
     193      0.000      0.000      0.300      0.000 
     194      1.300     -0.200      0.200      0.000 
     195      1.300     -0.200      0.200      0.000 
     196      1.300     -0.200      0.200      0.000 
     197      0.000      0.000      0.300      0.000 
     198      1.300     -0.200      0.200      0.000 
     199      2.817     -0.169      0.543      0.000 
     200      0.000      0.000      0.300      0.000 
     201      1.300     -0.200      0.200      0.000 
     202      0.000      0.000      0.300      0.000 
     203      0.000      0.000      0.300      0.000 
     204      0.000      0.000      0.300      0.000 
     205      0.000      0.000      0.300      0.000 
     206      0.000      0.000      0.300      0.000 
     207      0.000      0.000      0.300      0.000 
     208      0.000      0.000      0.300      0.000 
     209      0.000      0.000      0.300      0.000 
     210      0.346      0.405     -0.904      0.000 
     211      0.000      0.000      0.300      0.000 
     212      0.000      0.000      0.300      0.000 
     213      0.000      0.000      0.300      0.000 
     214      0.000      0.000      0.300      0.000 
     215      1.300     -0.200      0.200      0.000 
     216      0.000      0.000      0.300      0.000 
     217      0.000      0.000      0.300      0.000 
     218      0.000      0.000      0.300      0.000 
     219      0.000      0.000      0.468      0.000 
     220      0.000      0.000      0.300      0.000 
     221      0.000      0.000      0.300      0.000 
     222      0.000      0.000      0.300      0.000 
     223      1.300     -0.200      0.200      0.000 
     224      0.000      0.000      0.300      0.000 
     225      0.000      0.000     -0.372      0.000 
     226      0.000      0.000      0.366      0.000 
     227      0.000      0.000      0.300      0.000 
     228      0.000     14.000      0.000      0.000 
     229      0.000      0.000      0.300      0.000 
     230      0.000      0.000      0.300      0.000 
     231      1.300     -0.200      0.200      0.000 
     232      0.000      0.000      0.300      0.000 
     233      0.000      0.000      0.300      0.000 
     234      0.000      0.000      0.300      0.000 
     235      0.000      0.000      0.300      0.000 
     236      0.000      0.000      0.300      0.000 
     237      0.000      0.000     -0.372      0.000 
     238      0.000      0.000      0.300      0.000 
     239      1.300     -0.200      0.200      0.000 
     240      0.000      0.000      0.300      0.000 
     241      0.000      0.000      0.366      0.000 
     242      1.300     -0.200      0.200      0.000 
     243      0.000      0.000      0.300      0.000 
     244      0.000      0.000      0.300      0.000 
     245      1.300     -0.200      0.200      0.000 
     246      0.000      0.000      0.300      0.000 
     247      0.000      0.000      0.300      0.000 
     248      0.000      0.000      0.300      0.000 
     249      0.000      0.000      0.300      0.000 
     250      0.000      0.000      0.300      0.000 
     251      0.000      0.000      0.300      0.000 
     252      1.300     -0.200      0.200      0.000 
     253      0.000     14.000      0.000      0.000 
     254      0.000      0.000      0.300      0.000 
     255      0.000     14.000      0.000      0.000 
     256      0.000      0.000      0.300      0.000 
     257      0.000      0.000      0.300      0.000 
     258      1.300     -0.200      0.200      0.000 
     259      1.300     -0.200      0.200      0.000 

Improper Coeffs 

       1      0.000      -1       2 
       2      0.000      -1       2 
       3      0.000      -1       2 
       4      0.000      -1       2 
       5      0.000      -1       2 
       6      0.000      -1       2 
       7      0.000      -1       2 
       8      0.000      -1       2 
       9      0.000      -1       2 
      10      0.000      -1       2 
      11      0.000      -1       2 
      12      2.500      -1       2 
      13      0.000      -1       2 
      14      0.000      -1       2 
      15      0.000      -1       2 
      16      0.000      -1       2 
      17      0.000      -1       2 
      18      0.000      -1       2 
      19      0.000      -1       2 
      20      0.000      -1       2 
      21      0.000      -1       2 
      22      0.000      -1       2 
      23      0.000      -1       2 
      24      0.000      -1       2 
      25      0.000      -1       2 
      26      0.000      -1       2 
      27      0.000      -1       2 
      28      0.000      -1       2 
      29      0.000      -1       2 
      30      0.000      -1       2 
      31      0.000      -1       2 
      32      0.000      -1       2 
      33      0.000      -1       2 
      34      0.000      -1       2 
      35      0.000      -1       2 
      36      0.000      -1       2 
      37      0.000      -1       2 
      38      0.000      -1       2 
      39      2.500      -1       2 
      40      0.000      -1       2 
      41      0.000      -1       2 
      42      0.000      -1       2 
      43      0.000      -1       2 
      44      0.000      -1       2 
      45      0.000      -1       2 
      46      0.000      -1       2 
      47      0.000      -1       2 
      48      0.000      -1       2 
      49      0.000      -1       2 

Atoms 

     1      1      1 -0.25100000    1.000  1.00000  0.00000
     2      1      2 -0.20170000   -0.537  1.00000  0.00000
     3      1      3 0.09900000   -0.718  1.00000  1.09058
     4      1      4 -0.18350000   -1.097 -0.38822 -0.53272
     5      1      5 -0.17190000   -0.603 -1.73424  0.06765
     6      1      6 -0.16820000   -0.955 -2.09965  1.52936
     7      1      7 -0.11250000   -2.439 -2.33401  1.91000
     8      1      8 -0.23390000   -3.104 -3.48417  1.14552
     9      1      9 -0.23830000   -2.553 -2.64928  3.41457
    10      1     10 -0.19850000   -1.251  2.57309 -0.52630
    11      1     11 0.31510000   -0.384  2.52734 -1.16971
    12      1     12 -0.05760000   -2.570  2.02252  0.03758
    13      1     13 -0.19840000   -3.336  1.50171 -1.14713
    14      1     14 -0.12960000   -3.534  2.81602 -1.77720
    15      1     15 0.10250000   -3.968  3.50172 -1.03205
    16      1     16 -0.13070000   -2.089  3.26795 -2.00730
    17      1     17 -0.14630000   -2.436  4.80505 -2.30665
    18      1     18 -0.16080000   -3.446  4.95648 -3.59765
    19      1     19 -0.10040000   -4.783  4.13261 -3.52306
    20      1     20 0.09140000   -5.389  4.76620 -2.85532
    21      1     21 -0.09940000   -4.583  2.79468 -2.82073
    22      1     22 0.10890000   -4.296  2.02293 -3.53222
    23      1     23 -0.14740000   -5.956  2.47497 -2.16442
    24      1     24 -0.19860000   -6.899  2.11847 -3.24768
    25      1     25 -0.11820000   -6.705  2.60611 -4.47343
    26      1     26 0.01630000   -5.748  3.80514 -4.78047
    27      1     27 -0.16320000   -5.004  3.47154 -6.09593
    28      1     28 -0.21380000   -4.712  1.98157 -6.29013
    29      1     29 0.07920000   -6.005  1.14673 -6.37163
    30      1     30 0.08100000   -5.802  0.14160 -5.97512
    31      1     31 -0.12940000   -7.192  1.76884 -5.63319
    32      1     32 -0.59440000   -6.376  0.98672 -7.74141
    33      1     33 -0.22960000   -6.682  5.01100 -5.03913
    34      1     34 -0.23890000   -1.234  2.88921 -3.24487
    35      1     35 0.08250000    1.404  0.80744 -0.99474
    36      1     36 0.08250000    1.377  0.21768  0.67311
    37      1     37 0.08250000    1.387  1.95055  0.38048
    38      1     38 0.08560000   -0.885 -0.42396 -1.60860
    39      1     39 0.08560000   -2.180 -0.45564 -0.41477
    40      1     40 0.08400000    0.484 -1.79492 -0.04608