LAMMPS data file Created by LigParGen - (Written by Leela S. Dodda)

      47 atoms
      48 bonds
      76 angles
      98 dihedrals
      24 impropers
 
      47 atom types
      48 bond types
      76 angle types
      98 dihedral types
      24 improper types
 
  -13.505830    36.494170 xlo xhi
   -7.017080    42.982920 ylo yhi
    0.000000    50.000000 zlo zhi

Masses

       1      1.008  
       2     15.999  
       3     12.011  
       4     12.011  
       5     12.011  
       6      1.008  
       7     12.011  
       8     15.999  
       9     12.011  
      10      1.008  
      11     12.011  
      12     12.011  
      13      1.008  
      14     12.011  
      15      1.008  
      16      1.008  
      17      1.008  
      18     12.011  
      19      1.008  
      20     12.011  
      21      1.008  
      22     12.011  
      23     15.999  
      24     12.011  
      25      1.008  
      26      1.008  
      27     12.011  
      28     15.999  
      29     12.011  
      30      1.008  
      31     12.011  
      32      1.008  
      33     12.011  
      34     12.011  
      35      1.008  
      36     12.011  
      37      1.008  
      38     12.011  
      39      1.008  
      40     12.011  
      41     15.999  
      42     15.999  
      43     12.011  
      44      1.008  
      45      1.008  
      46      1.008  
      47      1.008  

Pair Coeffs 

       1      0.000  0.0000000 
       2      0.170  3.1200000 
       3      0.070  3.5500000 
       4      0.070  3.5500000 
       5      0.070  3.5500000 
       6      0.030  2.4200000 
       7      0.070  3.5500000 
       8      0.140  2.9000000 
       9      0.070  3.5500000 
      10      0.030  2.4200000 
      11      0.070  3.5500000 
      12      0.066  3.5000000 
      13      0.030  2.4200000 
      14      0.076  3.5500000 
      15      0.030  2.5000000 
      16      0.030  2.5000000 
      17      0.030  2.5000000 
      18      0.076  3.5500000 
      19      0.030  2.5000000 
      20      0.070  3.5500000 
      21      0.030  2.5000000 
      22      0.066  3.5000000 
      23      0.210  2.9600000 
      24      0.070  3.5500000 
      25      0.030  2.5000000 
      26      0.030  2.5000000 
      27      0.076  3.5500000 
      28      0.210  2.9600000 
      29      0.076  3.5500000 
      30      0.030  2.5000000 
      31      0.070  3.5500000 
      32      0.030  2.5000000 
      33      0.070  3.5500000 
      34      0.070  3.5500000 
      35      0.030  2.4200000 
      36      0.070  3.5500000 
      37      0.030  2.4200000 
      38      0.070  3.5500000 
      39      0.030  2.4200000 
      40      0.070  3.5500000 
      41      0.140  2.9000000 
      42      0.170  3.1200000 
      43      0.066  3.5000000 
      44      0.000  0.0000000 
      45      0.030  2.5000000 
      46      0.030  2.5000000 
      47      0.030  2.5000000 

Bond Coeffs 

       1   553.0000     0.9450 
       2   450.0000     1.3640 
       3   469.0000     1.4000 
       4   469.0000     1.4000 
       5   367.0000     1.0800 
       6   469.0000     1.4000 
       7   450.0000     1.3640 
       8   469.0000     1.4000 
       9   367.0000     1.0800 
      10   469.0000     1.4000 
      11   320.0000     1.4100 
      12   367.0000     1.0800 
      13   427.0000     1.4330 
      14   340.0000     1.0900 
      15   340.0000     1.0900 
      16   340.0000     1.0900 
      17   549.0000     1.3400 
      18   340.0000     1.0800 
      19   410.0000     1.4440 
      20   340.0000     1.0800 
      21   317.0000     1.5220 
      22   570.0000     1.2290 
      23   317.0000     1.5220 
      24   340.0000     1.0900 
      25   340.0000     1.0900 
      26   410.0000     1.4440 
      27   570.0000     1.2290 
      28   549.0000     1.3400 
      29   340.0000     1.0800 
      30   427.0000     1.4330 
      31   340.0000     1.0800 
      32   469.0000     1.4000 
      33   469.0000     1.4000 
      34   367.0000     1.0800 
      35   469.0000     1.4000 
      36   367.0000     1.0800 
      37   469.0000     1.4000 
      38   367.0000     1.0800 
      39   469.0000     1.4000 
      40   450.0000     1.3640 
      41   450.0000     1.3640 
      42   320.0000     1.4100 
      43   553.0000     0.9450 
      44   340.0000     1.0900 
      45   340.0000     1.0900 
      46   340.0000     1.0900 
      47   469.0000     1.4000 
      48   469.0000     1.4000 

Angle Coeffs 

       1     35.000    113.000
       2     70.000    120.000
       3     70.000    120.000
       4     35.000    120.000
       5     63.000    120.000
       6     70.000    120.000
       7     63.000    120.000
       8     35.000    120.000
       9     63.000    120.000
      10     75.000    111.000
      11     35.000    120.000
      12     70.000    124.000
      13     35.000    109.500
      14     35.000    109.500
      15     35.000    109.500
      16     85.000    117.000
      17     35.000    123.300
      18     85.000    120.700
      19     35.000    120.000
      20     70.000    116.000
      21     80.000    125.300
      22     63.000    111.100
      23     35.000    109.500
      24     35.000    109.500
      25     70.000    116.000
      26     80.000    120.400
      27     85.000    120.700
      28     35.000    119.700
      29     85.000    117.000
      30     35.000    120.000
      31     70.000    124.000
      32     70.000    124.000
      33     35.000    120.000
      34     63.000    120.000
      35     35.000    120.000
      36     63.000    120.000
      37     35.000    120.000
      38     63.000    120.000
      39     70.000    120.000
      40     70.000    120.000
      41     75.000    111.000
      42     35.000    113.000
      43     35.000    109.500
      44     35.000    109.500
      45     35.000    109.500
      46     35.000    119.700
      47     33.000    107.800
      48     35.000    120.000
      49     35.000    109.500
      50     33.000    107.800
      51     63.000    120.000
      52     70.000    120.000
      53     35.000    120.000
      54     35.000    120.000
      55     35.000    120.000
      56     33.000    107.800
      57     35.000    109.500
      58     80.000    125.300
      59     70.000    120.000
      60     63.000    120.000
      61     35.000    123.300
      62     33.000    107.800
      63     63.000    120.000
      64     35.000    120.000
      65     80.000    120.400
      66     35.000    120.000
      67     63.000    120.000
      68     63.000    120.000
      69     33.000    107.800
      70     33.000    107.800
      71     35.000    120.000
      72     70.000    124.000
      73     63.000    120.000
      74     70.000    120.000
      75     35.000    120.000
      76     33.000    107.800

Dihedral Coeffs  

       1      0.000      1.682      0.000      0.000 
       2      0.000      7.250      0.000      0.000 
       3      0.000      7.250      0.000      0.000 
       4      0.000      7.250      0.000      0.000 
       5      0.000      3.000      0.000      0.000 
       6      0.000      0.000      0.760      0.000 
       7      1.241      3.353     -0.286      0.000 
       8      0.000     14.000      0.000      0.000 
       9      0.346      0.405     -0.904      0.000 
      10      0.000      0.000      0.000      0.000 
      11      0.000      0.000      0.000      0.000 
      12      0.346      0.405     -0.904      0.000 
      13      0.000     14.000      0.000      0.000 
      14      1.241      3.353     -0.286      0.000 
      15      0.000      7.250      0.000      0.000 
      16      0.000      7.250      0.000      0.000 
      17      0.000      7.250      0.000      0.000 
      18      0.000      3.000      0.000      0.000 
      19      0.000      1.682      0.000      0.000 
      20      0.000      0.000      0.760      0.000 
      21      0.000     14.000      0.000      0.000 
      22      0.000      7.250      0.000      0.000 
      23      1.241      3.353     -0.286      0.000 
      24      0.000      7.250      0.000      0.000 
      25      0.000      0.000      0.000      0.000 
      26      0.000      7.250      0.000      0.000 
      27      0.000      7.250      0.000      0.000 
      28      0.000      0.000      0.275      0.000 
      29      0.000      0.000      0.000      0.000 
      30      0.000      0.000      0.275      0.000 
      31      0.000      0.000     -0.372      0.000 
      32      0.000      7.250      0.000      0.000 
      33      0.000      7.250      0.000      0.000 
      34      0.000      7.250      0.000      0.000 
      35      0.000      7.250      0.000      0.000 
      36      0.000      3.000      0.000      0.000 
      37      0.000      0.000      0.000      0.000 
      38      0.000     14.000      0.000      0.000 
      39      0.000      0.000      0.760      0.000 
      40      0.000      7.250      0.000      0.000 
      41      0.000      0.000      0.000      0.000 
      42      0.000      7.250      0.000      0.000 
      43      0.000     14.000      0.000      0.000 
      44      1.241      3.353     -0.286      0.000 
      45      0.000     14.000      0.000      0.000 
      46      2.500      6.000      0.000      0.000 
      47      0.000      0.000      0.275      0.000 
      48      0.000      0.000      0.000      0.000 
      49      0.000      7.250      0.000      0.000 
      50      0.000      7.250      0.000      0.000 
      51      0.000      7.250      0.000      0.000 
      52      0.000      0.000      0.000      0.000 
      53      0.000      7.250      0.000      0.000 
      54      0.000      3.000      0.000      0.000 
      55      0.000      7.250      0.000      0.000 
      56      0.000      7.250      0.000      0.000 
      57      0.000      7.250      0.000      0.000 
      58      0.000      7.250      0.000      0.000 
      59      0.000      7.250      0.000      0.000 
      60      0.000      7.250      0.000      0.000 
      61      0.000      7.250      0.000      0.000 
      62      0.000      7.250      0.000      0.000 
      63      2.500      6.000      0.000      0.000 
      64      0.000      7.250      0.000      0.000 
      65      0.000      0.000     -0.372      0.000 
      66      0.000      0.000      0.000      0.000 
      67      0.000      7.250      0.000      0.000 
      68      0.000     14.000      0.000      0.000 
      69      0.000      0.000      0.275      0.000 
      70      0.000      7.250      0.000      0.000 
      71      0.000      0.000      0.760      0.000 
      72      0.000      7.250      0.000      0.000 
      73      0.000      0.000      0.000      0.000 
      74      0.000      7.250      0.000      0.000 
      75      0.000      7.250      0.000      0.000 
      76      0.000      7.250      0.000      0.000 
      77      0.000      0.000     -0.372      0.000 
      78      0.000     14.000      0.000      0.000 
      79      0.000      1.682      0.000      0.000 
      80      0.000      0.000      0.760      0.000 
      81      0.000      7.250      0.000      0.000 
      82      0.000      7.250      0.000      0.000 
      83      0.000      0.000      0.275      0.000 
      84      0.000      7.250      0.000      0.000 
      85      0.000      7.250      0.000      0.000 
      86      0.000      7.250      0.000      0.000 
      87      0.000      7.250      0.000      0.000 
      88      0.000      7.250      0.000      0.000 
      89      0.000      7.250      0.000      0.000 
      90      0.000      0.000      0.760      0.000 
      91      0.000      0.000     -0.372      0.000 
      92      0.000      7.250      0.000      0.000 
      93      0.000      7.250      0.000      0.000 
      94      0.000      1.682      0.000      0.000 
      95      0.000      7.250      0.000      0.000 
      96      0.000      7.250      0.000      0.000 
      97      0.000      0.000      0.275      0.000 
      98      0.000      7.250      0.000      0.000 

Improper Coeffs 

       1      2.500      -1       2 
       2      2.500      -1       2 
       3      2.500      -1       2 
       4      2.500      -1       2 
       5      2.500      -1       2 
       6      2.500      -1       2 
       7      0.000      -1       2 
       8      0.000      -1       2 
       9      2.500      -1       2 
      10      2.500      -1       2 
      11     10.500      -1       2 
      12      0.000      -1       2 
      13      0.000      -1       2 
      14     10.500      -1       2 
      15      2.500      -1       2 
      16      2.500      -1       2 
      17      2.500      -1       2 
      18      2.500      -1       2 
      19      2.500      -1       2 
      20      2.500      -1       2 
      21      2.500      -1       2 
      22      2.500      -1       2 
      23      0.000      -1       2 
      24      0.000      -1       2 

Atoms 

     1      1      1 0.44660000    1.000  1.00000  0.00000
     2      1      2 -0.71180000    0.027  1.00000  0.00000
     3      1      3 0.35110000   -0.400  1.00000  1.29368
     4      1      4 -0.14970000   -1.768  0.99846  1.56384
     5      1      5 0.03370000    0.520  1.00000  2.34232
     6      1      6 0.16520000   -2.488  0.99728  0.74931
     7      1      7 -0.10910000   -2.217  0.99998  2.88424
     8      1      8 -0.32840000    1.858  1.00000  2.08756
     9      1      9 -0.16810000    0.071  0.99847  3.66296
    10      1     10 0.15620000   -3.290  0.99991  3.04815
    11      1     11 -0.07950000   -1.292  1.00300  3.91506
    12      1     12 -0.04230000    2.731  0.99839  3.21555
    13      1     13 0.15450000    0.740  0.99271  4.51659
    14      1     14 -0.04890000   -1.768  1.01284  5.30962
    15      1     15 0.09830000    2.618  0.08687  3.81231
    16      1     16 0.09830000    2.618  1.90817  3.81477
    17      1     17 0.09830000    3.756  0.99731  2.82889
    18      1     18 -0.27050000   -2.997  0.64274  5.69615
    19      1     19 0.15810000   -1.045  1.35086  6.04864
    20      1     20 0.42320000   -3.381  0.69148  7.13813
    21      1     21 0.16480000   -3.730  0.23222  5.01272
    22      1     22 -0.28970000   -4.421 -0.32079  7.57542
    23      1     23 -0.43920000   -2.846  1.47113  7.92223
    24      1     24 0.41340000   -5.745 -0.25016  6.84024
    25      1     25 0.14720000   -4.629 -0.16002  8.63942
    26      1     26 0.14720000   -3.973 -1.31481  7.46674
    27      1     27 -0.28720000   -6.477 -1.54381  6.70017
    28      1     28 -0.44420000   -6.170  0.79050  6.34547
    29      1     29 -0.02980000   -7.658 -1.58878  6.06757
    30      1     30 0.15720000   -6.019 -2.40461  7.17208
    31      1     31 -0.08300000   -8.458 -2.81122  5.87779
    32      1     32 0.16610000   -8.088 -0.67994  5.65300
    33      1     33 -0.10780000   -7.842 -4.04725  5.98429
    34      1     34 -0.17480000   -9.811 -2.69925  5.59849
    35      1     35 0.14750000   -6.785 -4.16703  6.20307
    36      1     36 -0.21970000   -8.598 -5.20508  5.80343
    37      1     37 0.16150000  -10.228 -1.70014  5.53065
    38      1     38 0.11370000  -10.569 -3.85654  5.42033
    39      1     39 0.14830000   -8.112 -6.17410  5.88604
    40      1     40 0.34920000   -9.960 -5.10989  5.51866
    41      1     41 -0.28590000  -11.900 -3.74965  5.14998
    42      1     42 -0.69750000  -10.687 -6.24758  5.33670
    43      1     43 -0.05490000  -12.439 -2.43173  5.06578
    44      1     44 0.43010000  -10.101 -7.01708  5.44072
    45      1     45 0.09740000  -11.996 -1.86701  4.23841
    46      1     46 0.09740000  -12.362 -1.90291  6.02201
    47      1     47 0.09750000  -13.506 -2.53467  4.84271

Bonds 

     1      1      2      1
     2      2      3      2
     3      3      4      3
     4      4      5      3
     5      5      6      4
     6      6      7      4
     7      7      8      5
     8      8      9      5
     9      9     10      7
    10     10     11      7
    11     11     12      8
    12     12     13      9
    13     13     14     11
    14     14     15     12
    15     15     16     12
    16     16     17     12
    17     17     18     14
    18     18     19     14
    19     19     20     18
    20     20     21     18
    21     21     22     20
    22     22     23     20
    23     23     24     22
    24     24     25     22
    25     25     26     22
    26     26     27     24
    27     27     28     24
    28     28     29     27
    29     29     30     27
    30     30     31     29
    31     31     32     29
    32     32     33     31
    33     33     34     31
    34     34     35     33
    35     35     36     33
    36     36     37     34
    37     37     38     34
    38     38     39     36
    39     39     40     36
    40     40     41     38
    41     41     42     40
    42     42     43     41
    43     43     44     42
    44     44     45     43
    45     45     46     43
    46     46     47     43
    47     47     11      9
    48     48     40     38

Angles 

     1      1      1      2      3
     2      2      2      3      4
     3      3      2      3      5
     4      4      3      4      6
     5      5      3      4      7
     6      6      3      5      8
     7      7      3      5      9
     8      8      4      7     10
     9      9      4      7     11
    10     10      5      8     12
    11     11      5      9     13
    12     12      7     11     14
    13     13      8     12     15
    14     14      8     12     16
    15     15      8     12     17
    16     16     11     14     18
    17     17     11     14     19
    18     18     14     18     20
    19     19     14     18     21
    20     20     18     20     22
    21     21     18     20     23
    22     22     20     22     24
    23     23     20     22     25
    24     24     20     22     26
    25     25     22     24     27
    26     26     22     24     28
    27     27     24     27     29
    28     28     24     27     30
    29     29     27     29     31
    30     30     27     29     32
    31     31     29     31     33
    32     32     29     31     34
    33     33     31     33     35
    34     34     31     33     36
    35     35     31     34     37
    36     36     31     34     38
    37     37     33     36     39
    38     38     33     36     40
    39     39     34     38     41
    40     40     36     40     42
    41     41     38     41     43
    42     42     40     42     44
    43     43     41     43     45
    44     44     41     43     46
    45     45     41     43     47
    46     46     20     18     21
    47     47     16     12     17
    48     48     35     33     36
    49     49     24     22     25
    50     50     15     12     16
    51     51     36     40     38
    52     52     38     40     42
    53     53      6      4      7
    54     54     10      7     11
    55     55     39     36     40
    56     56     46     43     47
    57     57     24     22     26
    58     58     27     24     28
    59     59     40     38     41
    60     60      5      9     11
    61     61     31     29     32
    62     62     45     43     46
    63     63      4      3      5
    64     64     18     14     19
    65     65     22     20     23
    66     66     29     27     30
    67     67     34     38     40
    68     68      7     11      9
    69     69     45     43     47
    70     70     25     22     26
    71     71     11      9     13
    72     72      9     11     14
    73     73     33     31     34
    74     74      8      5      9
    75     75     37     34     38
    76     76     15     12     17

Dihedrals

     1      1      4      3      2      1 
     2      2      6      4      3      2 
     3      3      8      5      3      2 
     4      4     10      7      4      3 
     5      5     12      8      5      3 
     6      6     15     12      8      5 
     7      7     18     14     11      7 
     8      8     20     18     14     11 
     9      9     22     20     18     14 
    10     10     24     22     20     18 
    11     11     27     24     22     20 
    12     12     29     27     24     22 
    13     13     31     29     27     24 
    14     14     33     31     29     27 
    15     15     35     33     31     29 
    16     16     37     34     31     29 
    17     17     39     36     33     31 
    18     18     43     41     38     34 
    19     19     44     42     40     36 
    20     20     45     43     41     38 
    21     21     31     29     27     30 
    22     22     11      9      5      3 
    23     23     18     14     11      9 
    24     24      8      5      3      4 
    25     25     28     24     22     26 
    26     26     36     33     31     29 
    27     27      7     11      9      5 
    28     28     22     20     18     21 
    29     29     28     24     22     25 
    30     30     27     24     22     26 
    31     31     19     14     11      9 
    32     32     13      9     11      7 
    33     33     40     38     34     31 
    34     34     38     34     31     33 
    35     35      9      5      3      4 
    36     36     12      8      5      9 
    37     37     23     20     18     21 
    38     38     21     18     14     11 
    39     39     46     43     41     38 
    40     40     11      7      4      6 
    41     41     26     22     20     23 
    42     42     14     11      7     10 
    43     43     21     18     14     19 
    44     44     34     31     29     27 
    45     45     32     29     27     30 
    46     46     29     27     24     28 
    47     47     26     22     20     18 
    48     48     24     22     20     23 
    49     49     42     40     38     41 
    50     50     40     38     34     37 
    51     51     41     38     34     37 
    52     52     28     24     22     20 
    53     53     11      9      5      8 
    54     54     43     41     38     40 
    55     55     13      9      5      3 
    56     56     42     40     36     39 
    57     57      7      4      3      2 
    58     58      9      5      3      2 
    59     59     41     38     40     36 
    60     60     36     33     31     34 
    61     61     36     40     38     34 
    62     62     42     40     36     33 
    63     63     23     20     18     14 
    64     64     11      7      4      3 
    65     65     33     31     29     32 
    66     66     25     22     20     23 
    67     67     10      7     11      9 
    68     68     32     29     27     24 
    69     69     27     24     22     25 
    70     70      6      4      3      5 
    71     71     47     43     41     38 
    72     72     40     36     33     31 
    73     73     30     27     24     28 
    74     74     37     34     31     33 
    75     75     14     11      9     13 
    76     76      7      4      3      5 
    77     77     19     14     11      7 
    78     78     20     18     14     19 
    79     79      5      3      2      1 
    80     80     16     12      8      5 
    81     81     13      9      5      8 
    82     82     38     34     31     29 
    83     83     25     22     20     18 
    84     84     14     11      7      4 
    85     85     35     33     31     34 
    86     86      9     11      7      4 
    87     87     39     36     33     35 
    88     88     14     11      9      5 
    89     89     42     40     38     34 
    90     90     17     12      8      5 
    91     91     34     31     29     32 
    92     92     38     40     36     33 
    93     93     41     38     34     31 
    94     94     44     42     40     38 
    95     95     10      7      4      6 
    96     96     40     36     33     35 
    97     97     30     27     24     22 
    98     98     39     36     40     38 

Impropers

     1      1      3      2      4      5 
     2      2      4      3      6      7 
     3      3      5      9      3      8 
     4      4      7     10     11      4 
     5      5      9      5     11     13 
     6      6     11      9     14      7 
     7      7     12      8     15     16 
     8      8     12     17     15      8 
     9      9     14     18     19     11 
    10     10     18     20     21     14 
    11     11     20     18     22     23 
    12     12     22     25     20     24 
    13     13     22     26     20     24 
    14     14     24     27     28     22 
    15     15     27     29     30     24 
    16     16     29     27     31     32 
    17     17     31     33     34     29 
    18     18     33     35     36     31 
    19     19     34     37     38     31 
    20     20     36     33     39     40 
    21     21     38     41     34     40 
    22     22     40     42     36     38 
    23     23     43     41     45     46 
    24     24     43     41     45     47 

