LAMMPS data file Created by LigParGen - (Written by Leela S. Dodda)

      47 atoms
      49 bonds
      78 angles
     103 dihedrals
      24 impropers
 
      47 atom types
      49 bond types
      78 angle types
     103 dihedral types
      24 improper types
 
   -3.130580    46.869420 xlo xhi
    0.079290    50.079290 ylo yhi
   -3.330740    46.669260 zlo zhi

Masses

       1     12.011  
       2     12.011  
       3     12.011  
       4     12.011  
       5     12.011  
       6     12.011  
       7     12.011  
       8     12.011  
       9     15.999  
      10     12.011  
      11     15.999  
      12     12.011  
      13     12.011  
      14     15.999  
      15     12.011  
      16     12.011  
      17     15.999  
      18     12.011  
      19     12.011  
      20     12.011  
      21     12.011  
      22     12.011  
      23     12.011  
      24     12.011  
      25     15.999  
      26     15.999  
      27     12.011  
      28      1.008  
      29      1.008  
      30      1.008  
      31      1.008  
      32      1.008  
      33      1.008  
      34      1.008  
      35      1.008  
      36      1.008  
      37      1.008  
      38      1.008  
      39      1.008  
      40      1.008  
      41      1.008  
      42      1.008  
      43      1.008  
      44      1.008  
      45      1.008  
      46      1.008  
      47      1.008  

Pair Coeffs 

       1      0.070  3.5500000 
       2      0.070  3.5500000 
       3      0.070  3.5500000 
       4      0.076  3.5500000 
       5      0.070  3.5500000 
       6      0.070  3.5500000 
       7      0.076  3.5500000 
       8      0.070  3.5500000 
       9      0.140  2.9000000 
      10      0.076  3.5500000 
      11      0.170  3.1200000 
      12      0.066  3.5000000 
      13      0.066  3.5000000 
      14      0.140  2.9000000 
      15      0.076  3.5500000 
      16      0.076  3.5500000 
      17      0.140  2.9000000 
      18      0.076  3.5500000 
      19      0.070  3.5500000 
      20      0.070  3.5500000 
      21      0.070  3.5500000 
      22      0.070  3.5500000 
      23      0.070  3.5500000 
      24      0.070  3.5500000 
      25      0.140  2.9000000 
      26      0.170  3.1200000 
      27      0.066  3.5000000 
      28      0.030  2.4200000 
      29      0.030  2.4200000 
      30      0.030  2.5000000 
      31      0.030  2.4200000 
      32      0.030  2.5000000 
      33      0.000  0.0000000 
      34      0.030  2.5000000 
      35      0.030  2.5000000 
      36      0.030  2.5000000 
      37      0.030  2.5000000 
      38      0.030  2.5000000 
      39      0.030  2.5000000 
      40      0.030  2.5000000 
      41      0.030  2.4200000 
      42      0.030  2.4200000 
      43      0.030  2.4200000 
      44      0.000  0.0000000 
      45      0.030  2.5000000 
      46      0.030  2.5000000 
      47      0.030  2.5000000 

Bond Coeffs 

       1   469.0000     1.4000 
       2   469.0000     1.4000 
       3   427.0000     1.4330 
       4   469.0000     1.4000 
       5   469.0000     1.4000 
       6   427.0000     1.4330 
       7   469.0000     1.4000 
       8   450.0000     1.3640 
       9   549.0000     1.3400 
      10   450.0000     1.3640 
      11   320.0000     1.4100 
      12   317.0000     1.5100 
      13   450.0000     1.3700 
      14   317.0000     1.5100 
      15   549.0000     1.3400 
      16   250.0000     1.4700 
      17   549.0000     1.3400 
      18   427.0000     1.4330 
      19   469.0000     1.4000 
      20   469.0000     1.4000 
      21   469.0000     1.4000 
      22   469.0000     1.4000 
      23   469.0000     1.4000 
      24   450.0000     1.3640 
      25   450.0000     1.3640 
      26   320.0000     1.4100 
      27   367.0000     1.0800 
      28   367.0000     1.0800 
      29   340.0000     1.0800 
      30   367.0000     1.0800 
      31   340.0000     1.0800 
      32   553.0000     0.9450 
      33   340.0000     1.0900 
      34   340.0000     1.0900 
      35   340.0000     1.0900 
      36   340.0000     1.0900 
      37   340.0000     1.0900 
      38   340.0000     1.0800 
      39   340.0000     1.0800 
      40   367.0000     1.0800 
      41   367.0000     1.0800 
      42   367.0000     1.0800 
      43   553.0000     0.9450 
      44   340.0000     1.0900 
      45   340.0000     1.0900 
      46   340.0000     1.0900 
      47   469.0000     1.4000 
      48   450.0000     1.3700 
      49   469.0000     1.4000 

Angle Coeffs 

       1     63.000    120.000
       2     70.000    124.000
       3     63.000    120.000
       4     63.000    120.000
       5     85.000    117.000
       6     63.000    120.000
       7     70.000    120.000
       8     85.000    117.000
       9     70.000    120.000
      10     75.000    111.000
      11     70.000    124.000
      12     70.000    123.000
      13     63.000    112.400
      14     70.000    124.000
      15     69.510    114.540
      16     85.000    117.000
      17     85.000    117.000
      18     70.000    124.000
      19     70.000    124.000
      20     63.000    120.000
      21     63.000    120.000
      22     63.000    120.000
      23     70.000    120.000
      24     70.000    120.000
      25     75.000    111.000
      26     35.000    120.000
      27     35.000    120.000
      28     35.000    123.300
      29     35.000    120.000
      30     35.000    120.000
      31     35.000    113.000
      32     35.000    109.500
      33     35.000    109.500
      34     35.000    109.500
      35     35.000    109.500
      36     35.000    109.500
      37     35.000    120.000
      38     35.000    123.300
      39     35.000    120.000
      40     35.000    120.000
      41     35.000    120.000
      42     35.000    113.000
      43     35.000    109.500
      44     35.000    109.500
      45     35.000    109.500
      46     33.000    107.800
      47     63.000    120.000
      48     33.000    107.800
      49     35.000    120.000
      50     70.000    120.000
      51     60.430    118.760
      52     60.430    118.760
      53     33.000    107.800
      54     70.000    124.000
      55     33.000    107.800
      56     35.000    120.000
      57     33.000    107.800
      58     35.000    120.000
      59     33.000    107.800
      60     69.510    114.540
      61     70.000    120.000
      62     35.000    123.300
      63     35.000    120.000
      64     35.000    120.000
      65     63.000    120.000
      66     33.000    107.800
      67     70.000    123.000
      68     63.000    120.000
      69     35.000    120.000
      70     63.000    120.000
      71     35.000    109.500
      72     35.000    120.000
      73     35.000    123.300
      74     63.000    120.000
      75     35.000    109.500
      76     35.000    120.000
      77     70.000    120.000
      78     70.000    120.000

Dihedral Coeffs  

       1      0.000      7.250      0.000      0.000 
       2      0.000      7.250      0.000      0.000 
       3      1.241      3.353     -0.286      0.000 
       4      0.000      7.250      0.000      0.000 
       5      1.241      3.353     -0.286      0.000 
       6      0.000      3.000      0.000      0.000 
       7      0.000     14.000      0.000      0.000 
       8      0.346      0.405     -0.904      0.000 
       9      0.346      0.405     -0.904      0.000 
      10     -3.500      3.000      0.000      0.000 
      11      0.000     14.000      0.000      0.000 
      12      1.241      3.353     -0.286      0.000 
      13      1.241      3.353     -0.286      0.000 
      14      0.000      7.250      0.000      0.000 
      15      0.000      7.250      0.000      0.000 
      16      0.000      7.250      0.000      0.000 
      17      0.000      3.000      0.000      0.000 
      18      0.000      1.682      0.000      0.000 
      19      0.000      0.000      0.760      0.000 
      20      0.000      1.682      0.000      0.000 
      21      0.000      0.000      0.760      0.000 
      22      0.000      7.250      0.000      0.000 
      23      0.000      7.250      0.000      0.000 
      24      0.000     14.000      0.000      0.000 
      25      0.000      7.250      0.000      0.000 
      26      0.000      7.250      0.000      0.000 
      27      0.000     14.000      0.000      0.000 
      28     -3.500      3.000      0.000      0.000 
      29      0.000      7.250      0.000      0.000 
      30      0.000      0.000      0.300      0.000 
      31      0.000      0.000      0.760      0.000 
      32      0.000      7.250      0.000      0.000 
      33      0.000      7.250      0.000      0.000 
      34      0.650     -0.250      0.670      0.000 
      35      0.000      7.250      0.000      0.000 
      36      0.000      7.250      0.000      0.000 
      37      0.000      0.000     -0.372      0.000 
      38      0.000      7.250      0.000      0.000 
      39      0.000      7.250      0.000      0.000 
      40      0.000      3.000      0.000      0.000 
      41      0.000      0.000      0.760      0.000 
      42     -3.500      3.000      0.000      0.000 
      43      0.000      7.250      0.000      0.000 
      44      0.000      7.250      0.000      0.000 
      45      0.000      0.000     -0.553      0.000 
      46      1.241      3.353     -0.286      0.000 
      47      0.000      7.250      0.000      0.000 
      48      0.000     14.000      0.000      0.000 
      49      0.000      7.250      0.000      0.000 
      50      0.650     -0.250      0.670      0.000 
      51      0.000      0.000     -0.372      0.000 
      52      0.000      0.000      0.468      0.000 
      53      0.000      0.000     -0.372      0.000 
      54      0.000      7.250      0.000      0.000 
      55      0.000      1.682      0.000      0.000 
      56      0.000      7.250      0.000      0.000 
      57      0.000      0.000     -0.372      0.000 
      58      0.000      7.250      0.000      0.000 
      59      0.000      7.250      0.000      0.000 
      60      0.000      7.250      0.000      0.000 
      61      0.000      7.250      0.000      0.000 
      62      0.000      0.000     -0.372      0.000 
      63      0.000      0.000     -0.372      0.000 
      64      0.000      7.250      0.000      0.000 
      65      0.000      7.250      0.000      0.000 
      66      1.241      3.353     -0.286      0.000 
      67      0.000      0.000      0.468      0.000 
      68      0.000      7.250      0.000      0.000 
      69      0.000      3.000      0.000      0.000 
      70      0.000      7.250      0.000      0.000 
      71      0.000      0.000      0.300      0.000 
      72      0.000      7.250      0.000      0.000 
      73      0.000      7.250      0.000      0.000 
      74      0.000      0.000     -0.372      0.000 
      75      0.000      0.000     -0.553      0.000 
      76      0.000      7.250      0.000      0.000 
      77      0.000      7.250      0.000      0.000 
      78      0.000      7.250      0.000      0.000 
      79      0.000      7.250      0.000      0.000 
      80      0.000      7.250      0.000      0.000 
      81      0.000      7.250      0.000      0.000 
      82      0.000      7.250      0.000      0.000 
      83      0.000      7.250      0.000      0.000 
      84      0.000      0.000     -0.372      0.000 
      85      0.000      7.250      0.000      0.000 
      86      0.000      0.000      0.468      0.000 
      87      0.000      0.000     -0.372      0.000 
      88      0.000      1.682      0.000      0.000 
      89      0.000      7.250      0.000      0.000 
      90      0.000      0.000     -0.372      0.000 
      91      0.000      7.250      0.000      0.000 
      92      0.000      7.250      0.000      0.000 
      93      0.000      0.000      0.760      0.000 
      94      0.000     14.000      0.000      0.000 
      95      0.000      0.000      0.760      0.000 
      96      0.000      7.250      0.000      0.000 
      97      0.000      0.000      0.468      0.000 
      98      0.000      0.000     -0.372      0.000 
      99      0.000     14.000      0.000      0.000 
     100      0.000     14.000      0.000      0.000 
     101      0.000      0.000     -0.372      0.000 
     102      0.000      7.250      0.000      0.000 
     103      0.000      7.250      0.000      0.000 

Improper Coeffs 

       1      2.500      -1       2 
       2      2.500      -1       2 
       3      2.500      -1       2 
       4      2.500      -1       2 
       5      2.500      -1       2 
       6      2.500      -1       2 
       7      2.500      -1       2 
       8      2.500      -1       2 
       9      2.500      -1       2 
      10      2.500      -1       2 
      11      2.500      -1       2 
      12      2.500      -1       2 
      13      0.000      -1       2 
      14      0.000      -1       2 
      15      0.000      -1       2 
      16      0.000      -1       2 
      17      2.500      -1       2 
      18      2.500      -1       2 
      19      2.500      -1       2 
      20      2.500      -1       2 
      21      2.500      -1       2 
      22      0.000      -1       2 
      23      0.000      -1       2 
      24      2.500      -1       2 

Atoms 

     1      1      1 -0.04720000    1.000  1.00000  0.00000
     2      1      2 -0.31330000   -0.001  1.00000  0.00000
     3      1      3 -0.20600000    1.503  1.00000 -0.86806
     4      1      4 -0.03320000    1.485  1.00109  0.86378
     5      1      5 0.20360000   -0.499  1.00000 -0.87195
     6      1      6 -0.39440000    1.001  1.00000 -1.72958
     7      1      7 -0.52150000    2.484  0.99999  0.86607
     8      1      8 0.21750000    0.005  1.00000 -1.73756
     9      1      9 -0.10810000   -1.501  0.99890 -0.87080
    10      1     10 0.62240000    2.978  1.00219  1.73723
    11      1     11 -0.35350000   -0.493  0.99891 -2.60180
    12      1     12 0.08220000   -2.000  1.00000 -1.74262
    13      1     13 -0.78040000    2.469  1.00546  2.59655
    14      1     14 -0.29330000    3.977  1.00001  1.74298
    15      1     15 0.62230000    2.962  1.00655  3.46696
    16      1     16 -0.52010000    2.453  1.01090  4.32288
    17      1     17 -0.29420000    3.962  1.00875  3.47390
    18      1     18 -0.03540000    1.452  1.01414  4.30305
    19      1     19 -0.04690000    0.941  1.01739  5.15510
    20      1     20 -0.31040000   -0.060  1.02174  5.14452
    21      1     21 -0.20970000    1.433  1.01521  6.02860
    22      1     22 0.20140000   -0.569  1.02390  6.00951
    23      1     23 -0.39610000    0.922  1.01957  6.88852
    24      1     24 0.21900000   -0.079  1.02173  6.87899
    25      1     25 -0.10900000   -1.571  1.02935  5.99431
    26      1     26 -0.35270000   -0.586  1.02280  7.73805
    27      1     27 0.08380000   -2.080  1.03041  6.85930
    28      1     28 0.17910000   -0.536  0.99883  0.92674
    29      1     29 0.20890000    2.573  1.00117 -0.86806
    30      1     30 0.12370000    0.941  1.00459  1.78501
    31      1     31 0.13840000    1.539  1.00118 -2.65519
    32      1     32 0.21030000    3.022  0.99532 -0.05816
    33      1     33 0.37790000    0.131  1.00027 -3.33074
    34      1     34 0.02610000   -3.052  0.99721 -1.55052
    35      1     35 0.02610000   -1.741  1.87639 -2.30029
    36      1     36 0.02610000   -1.737  0.12759 -2.30470
    37      1     37 0.21700000    1.932  0.07929  2.59382
    38      1     38 0.21700000    1.937  1.93394  2.58918
    39      1     39 0.21090000    2.974  1.01094  5.25656
    40      1     40 0.12700000    0.937  1.01525  3.36561
    41      1     41 0.17920000   -0.585  1.02524  4.21237
    42      1     42 0.21170000    2.503  1.00706  6.03970
    43      1     43 0.13940000    1.448  1.02074  7.82119
    44      1     44 0.37790000    0.031  1.01917  8.47267
    45      1     45 0.02540000   -3.131  1.03777  6.65352
    46      1     46 0.02540000   -1.832  0.15283  7.41910
    47      1     47 0.02540000   -1.821  1.90177  7.42364

Bonds 

     1      1      2      1
     2      2      3      1
     3      3      4      1
     4      4      5      2
     5      5      6      3
     6      6      7      4
     7      7      8      5
     8      8      9      5
     9      9     10      7
    10     10     11      8
    11     11     12      9
    12     12     13     10
    13     13     14     10
    14     14     15     13
    15     15     16     15
    16     16     17     14
    17     17     18     16
    18     18     19     18
    19     19     20     19
    20     20     21     19
    21     21     22     20
    22     22     23     21
    23     23     24     22
    24     24     25     22
    25     25     26     24
    26     26     27     25
    27     27     28      2
    28     28     29      3
    29     29     30      4
    30     30     31      6
    31     31     32      7
    32     32     33     11
    33     33     34     12
    34     34     35     12
    35     35     36     12
    36     36     37     13
    37     37     38     13
    38     38     39     16
    39     39     40     18
    40     40     41     20
    41     41     42     21
    42     42     43     23
    43     43     44     26
    44     44     45     27
    45     45     46     27
    46     46     47     27
    47     47      8      6
    48     48     17     15
    49     49     24     23

Angles 

     1      1      2      1      3
     2      2      2      1      4
     3      3      1      2      5
     4      4      1      3      6
     5      5      1      4      7
     6      6      2      5      8
     7      7      2      5      9
     8      8      4      7     10
     9      9      5      8     11
    10     10      5      9     12
    11     11      7     10     13
    12     12      7     10     14
    13     13     10     13     15
    14     14     13     15     16
    15     15     10     14     17
    16     16     15     16     18
    17     17     16     18     19
    18     18     18     19     20
    19     19     18     19     21
    20     20     19     20     22
    21     21     19     21     23
    22     22     20     22     24
    23     23     20     22     25
    24     24     22     24     26
    25     25     22     25     27
    26     26      1      2     28
    27     27      1      3     29
    28     28      1      4     30
    29     29      3      6     31
    30     30      4      7     32
    31     31      8     11     33
    32     32      9     12     34
    33     33      9     12     35
    34     34      9     12     36
    35     35     10     13     37
    36     36     10     13     38
    37     37     15     16     39
    38     38     16     18     40
    39     39     19     20     41
    40     40     19     21     42
    41     41     21     23     43
    42     42     24     26     44
    43     43     25     27     45
    44     44     25     27     46
    45     45     25     27     47
    46     46     37     13     38
    47     47     20     19     21
    48     48     45     27     47
    49     49     23     21     42
    50     50     24     22     25
    51     51     13     10     14
    52     52     13     15     17
    53     53     45     27     46
    54     54      3      1      4
    55     55     34     12     36
    56     56     18     16     39
    57     57     46     27     47
    58     58      8      6     31
    59     59     35     12     36
    60     60     14     17     15
    61     61     23     24     26
    62     62     19     18     40
    63     63     24     23     43
    64     64     10      7     32
    65     65      3      6      8
    66     66     34     12     35
    67     67     16     15     17
    68     68      5      8      6
    69     69      5      2     28
    70     70     22     24     23
    71     71     15     13     37
    72     72      6      3     29
    73     73      7      4     30
    74     74     21     23     24
    75     75     15     13     38
    76     76     22     20     41
    77     77      6      8     11
    78     78      8      5      9

Dihedrals

     1      1      5      2      1      3 
     2      2      6      3      1      2 
     3      3      7      4      1      2 
     4      4      8      5      2      1 
     5      5     10      7      4      1 
     6      6     12      9      5      2 
     7      7     13     10      7      4 
     8      8     15     13     10      7 
     9      9     16     15     13     10 
    10     10     17     14     10      7 
    11     11     18     16     15     13 
    12     12     19     18     16     15 
    13     13     20     19     18     16 
    14     14     22     20     19     18 
    15     15     23     21     19     18 
    16     16     24     22     20     19 
    17     17     27     25     22     20 
    18     18     33     11      8      5 
    19     19     34     12      9      5 
    20     20     44     26     24     22 
    21     21     45     27     25     22 
    22     22      6      3      1      4 
    23     23     28      2      5      8 
    24     24     14     10      7      4 
    25     25     31      6      3      1 
    26     26     42     21     23     24 
    27     27     39     16     15     13 
    28     28     15     17     14     10 
    29     29     26     24     22     20 
    30     30     40     18     16     39 
    31     31     36     12      9      5 
    32     32     42     21     19     18 
    33     33     26     24     23     21 
    34     34     17     14     10     13 
    35     35     41     20     19     21 
    36     36     43     23     24     26 
    37     37     37     13     10      7 
    38     38     26     24     22     25 
    39     39     11      8      5      2 
    40     40     27     25     22     24 
    41     41     47     27     25     22 
    42     42     16     15     17     14 
    43     43     43     23     24     22 
    44     44     22     24     23     21 
    45     45     17     15     13     10 
    46     46      7      4      1      3 
    47     47     29      3      1      4 
    48     48     32      7     10     13 
    49     49     25     22     24     23 
    50     50     14     17     15     13 
    51     51     40     18     19     20 
    52     52     37     13     10     14 
    53     53     38     13     10      7 
    54     54     23     24     22     20 
    55     55     44     26     24     23 
    56     56      6      8      5      2 
    57     57     30      4      1      3 
    58     58     28      2      1      4 
    59     59      5      8      6      3 
    60     60      8      6      3      1 
    61     61     28      2      5      9 
    62     62     37     13     15     16 
    63     63     32      7      4      1 
    64     64     31      6      3     29 
    65     65      9      5      8      6 
    66     66     21     19     18     16 
    67     67     38     13     15     17 
    68     68      9      5      2      1 
    69     69     12      9      5      8 
    70     70     28      2      1      3 
    71     71     32      7      4     30 
    72     72     41     20     22     24 
    73     73     42     21     19     20 
    74     74     30      4      7     10 
    75     75     15     13     10     14 
    76     76     43     23     21     19 
    77     77      5      2      1      4 
    78     78     41     20     19     18 
    79     79     11      8      6      3 
    80     80     23     21     19     20 
    81     81     43     23     21     42 
    82     82     11      8      5      9 
    83     83     24     23     21     19 
    84     84     39     16     18     19 
    85     85     22     20     19     21 
    86     86     38     13     10     14 
    87     87     30      4      1      2 
    88     88     33     11      8      6 
    89     89     31      6      8      5 
    90     90     40     18     16     15 
    91     91     41     20     22     25 
    92     92     29      3      6      8 
    93     93     35     12      9      5 
    94     94     39     16     15     17 
    95     95     46     27     25     22 
    96     96     25     22     20     19 
    97     97     37     13     15     17 
    98     98     38     13     15     16 
    99     99     32      7     10     14 
   100    100     18     16     15     17 
   101    101     40     18     19     21 
   102    102     31      6      8     11 
   103    103     29      3      1      2 

Impropers

     1      1      1      2      3      4 
     2      2      5      9      2      8 
     3      3      8     11      5      6 
     4      4     10     13     14      7 
     5      5     19     18     20     21 
     6      6     22     25     20     24 
     7      7     24     26     22     23 
     8      8      2      1     28      5 
     9      9      3      1     29      6 
    10     10      4      1     30      7 
    11     11      6      3     31      8 
    12     12      7     10      4     32 
    13     13     12      9     34     35 
    14     14     12      9     36     34 
    15     15     13     37     15     10 
    16     16     13     10     38     15 
    17     17     16     18     15     39 
    18     18     18     19     16     40 
    19     19     20     41     19     22 
    20     20     21     42     19     23 
    21     21     23     43     21     24 
    22     22     27     25     45     46 
    23     23     27     25     45     47 
    24     24     15     17     13     16 

