LAMMPS data file Created by LigParGen - (Written by Leela S. Dodda)

      32 atoms
      31 bonds
      58 angles
      80 dihedrals
      19 impropers
 
      32 atom types
      31 bond types
      58 angle types
      80 dihedral types
      19 improper types
 
   -9.566250    40.433750 xlo xhi
    0.096040    50.096040 ylo yhi
   -1.026570    48.973430 zlo zhi

Masses

       1     12.011  
       2     12.011  
       3     12.011  
       4     12.011  
       5     12.011  
       6     12.011  
       7     12.011  
       8     12.011  
       9     12.011  
      10     12.011  
      11     15.999  
      12     15.999  
      13      1.008  
      14      1.008  
      15      1.008  
      16      1.008  
      17      1.008  
      18      1.008  
      19      1.008  
      20      1.008  
      21      1.008  
      22      1.008  
      23      1.008  
      24      1.008  
      25      1.008  
      26      1.008  
      27      1.008  
      28      1.008  
      29      1.008  
      30      1.008  
      31      1.008  
      32      1.008  

Pair Coeffs 

       1      0.066  3.5000000 
       2      0.066  3.5000000 
       3      0.066  3.5000000 
       4      0.066  3.5000000 
       5      0.066  3.5000000 
       6      0.066  3.5000000 
       7      0.066  3.5000000 
       8      0.066  3.5000000 
       9      0.066  3.5000000 
      10      0.070  3.5500000 
      11      0.210  2.9600000 
      12      0.170  3.1200000 
      13      0.030  2.5000000 
      14      0.030  2.5000000 
      15      0.030  2.5000000 
      16      0.030  2.5000000 
      17      0.030  2.5000000 
      18      0.030  2.5000000 
      19      0.030  2.5000000 
      20      0.030  2.5000000 
      21      0.030  2.5000000 
      22      0.030  2.5000000 
      23      0.030  2.5000000 
      24      0.030  2.5000000 
      25      0.030  2.5000000 
      26      0.030  2.5000000 
      27      0.030  2.5000000 
      28      0.030  2.5000000 
      29      0.030  2.5000000 
      30      0.030  2.5000000 
      31      0.030  2.5000000 
      32      0.000  0.0000000 

Bond Coeffs 

       1   268.0000     1.5290 
       2   268.0000     1.5290 
       3   268.0000     1.5290 
       4   268.0000     1.5290 
       5   268.0000     1.5290 
       6   268.0000     1.5290 
       7   268.0000     1.5290 
       8   268.0000     1.5290 
       9   317.0000     1.5220 
      10   570.0000     1.2290 
      11   450.0000     1.3640 
      12   340.0000     1.0900 
      13   340.0000     1.0900 
      14   340.0000     1.0900 
      15   340.0000     1.0900 
      16   340.0000     1.0900 
      17   340.0000     1.0900 
      18   340.0000     1.0900 
      19   340.0000     1.0900 
      20   340.0000     1.0900 
      21   340.0000     1.0900 
      22   340.0000     1.0900 
      23   340.0000     1.0900 
      24   340.0000     1.0900 
      25   340.0000     1.0900 
      26   340.0000     1.0900 
      27   340.0000     1.0900 
      28   340.0000     1.0900 
      29   340.0000     1.0900 
      30   340.0000     1.0900 
      31   553.0000     0.9450 

Angle Coeffs 

       1     58.350    112.700
       2     58.350    112.700
       3     58.350    112.700
       4     58.350    112.700
       5     58.350    112.700
       6     58.350    112.700
       7     58.350    112.700
       8     63.000    111.100
       9     80.000    120.400
      10     70.000    108.000
      11     37.500    110.700
      12     37.500    110.700
      13     37.500    110.700
      14     37.500    110.700
      15     37.500    110.700
      16     37.500    110.700
      17     37.500    110.700
      18     37.500    110.700
      19     37.500    110.700
      20     37.500    110.700
      21     37.500    110.700
      22     37.500    110.700
      23     37.500    110.700
      24     37.500    110.700
      25     37.500    110.700
      26     37.500    110.700
      27     37.500    110.700
      28     37.500    110.700
      29     37.500    110.700
      30     35.000    113.000
      31     80.000    121.000
      32     35.000    109.500
      33     37.500    110.700
      34     37.500    110.700
      35     33.000    107.800
      36     37.500    110.700
      37     33.000    107.800
      38     37.500    110.700
      39     37.500    110.700
      40     37.500    110.700
      41     37.500    110.700
      42     37.500    110.700
      43     33.000    107.800
      44     37.500    110.700
      45     37.500    110.700
      46     37.500    110.700
      47     33.000    107.800
      48     33.000    107.800
      49     33.000    107.800
      50     33.000    107.800
      51     35.000    109.500
      52     33.000    107.800
      53     33.000    107.800
      54     37.500    110.700
      55     37.500    110.700
      56     37.500    110.700
      57     33.000    107.800
      58     33.000    107.800

Dihedral Coeffs  

       1      1.300     -0.200      0.200      0.000 
       2      1.300     -0.200      0.200      0.000 
       3      1.300     -0.200      0.200      0.000 
       4      1.300     -0.200      0.200      0.000 
       5      1.300     -0.200      0.200      0.000 
       6      1.300     -0.200      0.200      0.000 
       7     -2.060     -0.313      0.315      0.000 
       8      0.000      0.000      0.000      0.000 
       9      0.000      0.000      0.300      0.000 
      10      1.500      5.500      0.000      0.000 
      11      0.000      0.000      0.300      0.000 
      12      0.000      0.000      0.300      0.000 
      13      0.000      0.000      0.300      0.000 
      14      0.000      0.000      0.300      0.000 
      15      0.000      0.000      0.300      0.000 
      16      0.000      0.000      0.300      0.000 
      17      0.000      0.000      0.300      0.000 
      18      0.000      0.000      0.300      0.000 
      19      0.000      0.000      0.300      0.000 
      20      0.000      0.000      0.300      0.000 
      21      0.000      0.000      0.300      0.000 
      22      0.000      0.000      0.300      0.000 
      23      0.000      0.000      0.000      0.000 
      24      0.000      0.000      0.300      0.000 
      25      0.000      0.000      0.000      0.000 
      26      0.000      0.000      0.300      0.000 
      27      0.000      0.000      0.300      0.000 
      28      0.000      0.000      0.300      0.000 
      29      0.000      0.000      0.300      0.000 
      30      0.000      0.000      0.000      0.000 
      31      0.000      0.000      0.300      0.000 
      32      0.000      0.000      0.300      0.000 
      33      0.000      0.000      0.300      0.000 
      34      0.000      5.500      0.000      0.000 
      35      0.000      0.000      0.300      0.000 
      36      1.000      0.546      0.450      0.000 
      37      0.000      0.000     -0.100      0.000 
      38      0.000      0.000      0.300      0.000 
      39      0.000      0.000      0.300      0.000 
      40      0.000      0.000      0.300      0.000 
      41      0.000      0.000      0.300      0.000 
      42      0.000      0.000      0.300      0.000 
      43      0.000      0.000      0.300      0.000 
      44      0.000      0.000      0.000      0.000 
      45      0.000      0.000      0.300      0.000 
      46      0.000      0.000      0.300      0.000 
      47      0.000      0.000      0.300      0.000 
      48      0.000      0.000      0.300      0.000 
      49      0.000      0.000      0.300      0.000 
      50      0.000      0.000      0.300      0.000 
      51      0.000      0.000      0.300      0.000 
      52      0.000      0.000      0.300      0.000 
      53      0.000      0.000      0.300      0.000 
      54      0.000      0.000      0.300      0.000 
      55      0.000      0.000      0.300      0.000 
      56      0.000      0.000      0.300      0.000 
      57      0.000      0.000      0.300      0.000 
      58      0.000      0.000      0.300      0.000 
      59      0.000      0.000      0.300      0.000 
      60      0.000      0.000      0.300      0.000 
      61      0.000      0.000      0.300      0.000 
      62      0.000      0.000      0.300      0.000 
      63      0.000      0.000      0.300      0.000 
      64      0.000      0.000      0.300      0.000 
      65      0.000      0.000      0.300      0.000 
      66      0.000      0.000      0.300      0.000 
      67      0.000      0.000      0.300      0.000 
      68      0.000      0.000      0.300      0.000 
      69      0.000      0.000      0.300      0.000 
      70      0.000      0.000      0.300      0.000 
      71      0.000      0.000      0.300      0.000 
      72      0.000      0.000     -0.100      0.000 
      73      0.000      0.000      0.300      0.000 
      74      0.000      0.000      0.300      0.000 
      75      0.000      0.000      0.300      0.000 
      76      0.000      0.000      0.300      0.000 
      77      0.000      0.000      0.300      0.000 
      78      0.000      0.000      0.300      0.000 
      79      0.000      0.000      0.300      0.000 
      80      0.000      0.000      0.300      0.000 

Improper Coeffs 

       1     10.500      -1       2 
       2      0.000      -1       2 
       3      0.000      -1       2 
       4      0.000      -1       2 
       5      0.000      -1       2 
       6      0.000      -1       2 
       7      0.000      -1       2 
       8      0.000      -1       2 
       9      0.000      -1       2 
      10      0.000      -1       2 
      11      0.000      -1       2 
      12      0.000      -1       2 
      13      0.000      -1       2 
      14      0.000      -1       2 
      15      0.000      -1       2 
      16      0.000      -1       2 
      17      0.000      -1       2 
      18      0.000      -1       2 
      19      0.000      -1       2 

Atoms 

     1      1      1 -0.23890000    1.000  1.00000  0.00000
     2      1      2 -0.17930000   -0.520  1.00000  0.00000
     3      1      3 -0.17820000   -1.075  1.00000  1.42369
     4      1      4 -0.17910000   -2.604  0.99820  1.42370
     5      1      5 -0.17850000   -3.156  1.00001  2.84996
     6      1      6 -0.17820000   -4.685  0.99640  2.84668
     7      1      7 -0.17940000   -5.250  0.99637  4.26810
     8      1      8 -0.17070000   -6.778  0.99093  4.24353
     9      1      9 -0.26040000   -7.367  0.98901  5.65212
    10      1     10 0.50960000   -8.880  0.98541  5.62130
    11      1     11 -0.44470000   -9.566  0.98414  4.61238
    12      1     12 -0.55960000   -9.417  0.98208  6.86340
    13      1     13 0.08100000    1.379  1.00130 -1.02657
    14      1     14 0.08100000    1.391  0.11163  0.50633
    15      1     15 0.08100000    1.391  1.88699  0.50852
    16      1     16 0.08890000   -0.880  0.11700 -0.54078
    17      1     17 0.08890000   -0.880  1.88310 -0.54084
    18      1     18 0.08920000   -0.708  1.88349  1.96026
    19      1     19 0.08920000   -0.707  0.11719  1.96072
    20      1     20 0.09070000   -2.970  0.11331  0.88837
    21      1     21 0.09070000   -2.972  1.88034  0.88535
    22      1     22 0.08900000   -2.791  1.88505  3.38473
    23      1     23 0.08900000   -2.787  0.11898  3.38861
    24      1     24 0.09370000   -5.047  0.11188  2.30867
    25      1     25 0.09370000   -5.051  1.87830  2.30700
    26      1     26 0.08810000   -4.891  1.88169  4.80728
    27      1     27 0.08810000   -4.885  0.11510  4.80971
    28      1     28 0.11090000   -7.133  0.10873  3.69548
    29      1     29 0.11090000   -7.139  1.87016  3.69546
    30      1     30 0.12100000   -7.037  1.88327  6.19217
    31      1     31 0.12100000   -7.033  0.09604  6.19144
    32      1     32 0.45130000   -8.753  0.98252  7.57730

Bonds 

     1      1      2      1
     2      2      3      2
     3      3      4      3
     4      4      5      4
     5      5      6      5
     6      6      7      6
     7      7      8      7
     8      8      9      8
     9      9     10      9
    10     10     11     10
    11     11     12     10
    12     12     13      1
    13     13     14      1
    14     14     15      1
    15     15     16      2
    16     16     17      2
    17     17     18      3
    18     18     19      3
    19     19     20      4
    20     20     21      4
    21     21     22      5
    22     22     23      5
    23     23     24      6
    24     24     25      6
    25     25     26      7
    26     26     27      7
    27     27     28      8
    28     28     29      8
    29     29     30      9
    30     30     31      9
    31     31     32     12

Angles 

     1      1      1      2      3
     2      2      2      3      4
     3      3      3      4      5
     4      4      4      5      6
     5      5      5      6      7
     6      6      6      7      8
     7      7      7      8      9
     8      8      8      9     10
     9      9      9     10     11
    10     10      9     10     12
    11     11      2      1     13
    12     12      2      1     14
    13     13      2      1     15
    14     14      1      2     16
    15     15      1      2     17
    16     16      2      3     18
    17     17      2      3     19
    18     18      3      4     20
    19     19      3      4     21
    20     20      4      5     22
    21     21      4      5     23
    22     22      5      6     24
    23     23      5      6     25
    24     24      6      7     26
    25     25      6      7     27
    26     26      7      8     28
    27     27      7      8     29
    28     28      8      9     30
    29     29      8      9     31
    30     30     10     12     32
    31     31     11     10     12
    32     32     10      9     30
    33     33      8      7     27
    34     34      7      6     24
    35     35     13      1     14
    36     36      9      8     28
    37     37     22      5     23
    38     38      6      5     22
    39     39      9      8     29
    40     40      3      2     17
    41     41      7      6     25
    42     42      4      3     19
    43     43     28      8     29
    44     44      8      7     26
    45     45      3      2     16
    46     46      4      3     18
    47     47     30      9     31
    48     48     16      2     17
    49     49     18      3     19
    50     50     14      1     15
    51     51     10      9     31
    52     52     26      7     27
    53     53     24      6     25
    54     54      5      4     20
    55     55      6      5     23
    56     56      5      4     21
    57     57     13      1     15
    58     58     20      4     21

Dihedrals

     1      1      4      3      2      1 
     2      2      5      4      3      2 
     3      3      6      5      4      3 
     4      4      7      6      5      4 
     5      5      8      7      6      5 
     6      6      9      8      7      6 
     7      7     10      9      8      7 
     8      8     11     10      9      8 
     9      9     13      1      2      3 
    10     10     32     12     10      9 
    11     11     16      2      3      4 
    12     12     25      6      5      4 
    13     13     22      5      4      3 
    14     14     18      3      2      1 
    15     15     27      7      8      9 
    16     16     19      3      2      1 
    17     17     22      5      4     20 
    18     18     19      3      2     16 
    19     19     23      5      4      3 
    20     20     25      6      5     23 
    21     21     20      4      5      6 
    22     22     21      4      3      2 
    23     23     31      9     10     11 
    24     24     18      3      4      5 
    25     25     30      9     10     12 
    26     26     24      6      5     22 
    27     27     29      8      7      6 
    28     28     26      7      8      9 
    29     29     23      5      4     21 
    30     30     31      9     10     12 
    31     31     26      7      6     25 
    32     32     27      7      6     24 
    33     33     30      9      8     28 
    34     34     32     12     10     11 
    35     35     24      6      5      4 
    36     36     12     10      9      8 
    37     37     28      8      9     10 
    38     38     16      2      1     13 
    39     39     19      3      2     17 
    40     40     20      4      3     18 
    41     41     21      4      3     18 
    42     42     17      2      1     15 
    43     43     21      4      5      6 
    44     44     30      9     10     11 
    45     45     31      9      8      7 
    46     46     22      5      6      7 
    47     47     19      3      4      5 
    48     48     20      4      3      2 
    49     49     21      4      3     19 
    50     50     26      7      6      5 
    51     51     28      8      7     27 
    52     52     26      7      6     24 
    53     53     24      6      5     23 
    54     54     25      6      5     22 
    55     55     14      1      2      3 
    56     56     29      8      7     26 
    57     57     18      3      2     17 
    58     58     25      6      7      8 
    59     59     23      5      4     20 
    60     60     30      9      8      7 
    61     61     20      4      3     19 
    62     62     30      9      8     29 
    63     63     18      3      2     16 
    64     64     31      9      8     28 
    65     65     28      8      7     26 
    66     66     28      8      7      6 
    67     67     27      7      6     25 
    68     68     23      5      6      7 
    69     69     17      2      1     14 
    70     70     17      2      1     13 
    71     71     16      2      1     14 
    72     72     29      8      9     10 
    73     73     31      9      8     29 
    74     74     15      1      2      3 
    75     75     29      8      7     27 
    76     76     22      5      4     21 
    77     77     27      7      6      5 
    78     78     17      2      3      4 
    79     79     16      2      1     15 
    80     80     24      6      7      8 

Impropers

     1      1     10      9     11     12 
     2      2      1      2     13     14 
     3      3      1      2     13     15 
     4      4      2      1      3     16 
     5      5      2     17      3      1 
     6      6      3     18      4      2 
     7      7      3      2     19      4 
     8      8      4      3     20      5 
     9      9      4      5      3     21 
    10     10      5      4     22      6 
    11     11      5      4      6     23 
    12     12      6      5      7     24 
    13     13      6     25      5      7 
    14     14      7     26      6      8 
    15     15      7     27      6      8 
    16     16      8      9     28      7 
    17     17      8      9     29      7 
    18     18      9     10     30      8 
    19     19      9     10     31      8 

