LAMMPS data file Created by LigParGen - (Written by Leela S. Dodda)

      32 atoms
      31 bonds
      60 angles
      81 dihedrals
      20 impropers
 
      32 atom types
      31 bond types
      60 angle types
      81 dihedral types
      20 improper types
 
   -9.230380    40.769620 xlo xhi
    0.111800    50.111800 ylo yhi
   -1.026780    48.973220 zlo zhi

Masses

       1     12.011  
       2     12.011  
       3     12.011  
       4     12.011  
       5     12.011  
       6     12.011  
       7     12.011  
       8     12.011  
       9     12.011  
      10     12.011  
      11      1.008  
      12      1.008  
      13      1.008  
      14      1.008  
      15      1.008  
      16      1.008  
      17      1.008  
      18      1.008  
      19      1.008  
      20      1.008  
      21      1.008  
      22      1.008  
      23      1.008  
      24      1.008  
      25      1.008  
      26      1.008  
      27      1.008  
      28      1.008  
      29      1.008  
      30      1.008  
      31      1.008  
      32      1.008  

Pair Coeffs 

       1      0.066  3.5000000 
       2      0.066  3.5000000 
       3      0.066  3.5000000 
       4      0.066  3.5000000 
       5      0.066  3.5000000 
       6      0.066  3.5000000 
       7      0.066  3.5000000 
       8      0.066  3.5000000 
       9      0.066  3.5000000 
      10      0.066  3.5000000 
      11      0.030  2.5000000 
      12      0.030  2.5000000 
      13      0.030  2.5000000 
      14      0.030  2.5000000 
      15      0.030  2.5000000 
      16      0.030  2.5000000 
      17      0.030  2.5000000 
      18      0.030  2.5000000 
      19      0.030  2.5000000 
      20      0.030  2.5000000 
      21      0.030  2.5000000 
      22      0.030  2.5000000 
      23      0.030  2.5000000 
      24      0.030  2.5000000 
      25      0.030  2.5000000 
      26      0.030  2.5000000 
      27      0.030  2.5000000 
      28      0.030  2.5000000 
      29      0.030  2.5000000 
      30      0.030  2.5000000 
      31      0.030  2.5000000 
      32      0.030  2.5000000 

Bond Coeffs 

       1   268.0000     1.5290 
       2   268.0000     1.5290 
       3   268.0000     1.5290 
       4   268.0000     1.5290 
       5   268.0000     1.5290 
       6   268.0000     1.5290 
       7   268.0000     1.5290 
       8   268.0000     1.5290 
       9   268.0000     1.5290 
      10   340.0000     1.0900 
      11   340.0000     1.0900 
      12   340.0000     1.0900 
      13   340.0000     1.0900 
      14   340.0000     1.0900 
      15   340.0000     1.0900 
      16   340.0000     1.0900 
      17   340.0000     1.0900 
      18   340.0000     1.0900 
      19   340.0000     1.0900 
      20   340.0000     1.0900 
      21   340.0000     1.0900 
      22   340.0000     1.0900 
      23   340.0000     1.0900 
      24   340.0000     1.0900 
      25   340.0000     1.0900 
      26   340.0000     1.0900 
      27   340.0000     1.0900 
      28   340.0000     1.0900 
      29   340.0000     1.0900 
      30   340.0000     1.0900 
      31   340.0000     1.0900 

Angle Coeffs 

       1     58.350    112.700
       2     58.350    112.700
       3     58.350    112.700
       4     58.350    112.700
       5     58.350    112.700
       6     58.350    112.700
       7     58.350    112.700
       8     58.350    112.700
       9     37.500    110.700
      10     37.500    110.700
      11     37.500    110.700
      12     37.500    110.700
      13     37.500    110.700
      14     37.500    110.700
      15     37.500    110.700
      16     37.500    110.700
      17     37.500    110.700
      18     37.500    110.700
      19     37.500    110.700
      20     37.500    110.700
      21     37.500    110.700
      22     37.500    110.700
      23     37.500    110.700
      24     37.500    110.700
      25     37.500    110.700
      26     37.500    110.700
      27     37.500    110.700
      28     37.500    110.700
      29     37.500    110.700
      30     37.500    110.700
      31     37.500    110.700
      32     33.000    107.800
      33     37.500    110.700
      34     37.500    110.700
      35     33.000    107.800
      36     37.500    110.700
      37     33.000    107.800
      38     37.500    110.700
      39     33.000    107.800
      40     33.000    107.800
      41     37.500    110.700
      42     33.000    107.800
      43     33.000    107.800
      44     37.500    110.700
      45     33.000    107.800
      46     33.000    107.800
      47     37.500    110.700
      48     33.000    107.800
      49     37.500    110.700
      50     33.000    107.800
      51     37.500    110.700
      52     37.500    110.700
      53     37.500    110.700
      54     37.500    110.700
      55     37.500    110.700
      56     37.500    110.700
      57     33.000    107.800
      58     33.000    107.800
      59     37.500    110.700
      60     33.000    107.800

Dihedral Coeffs  

       1      1.300     -0.200      0.200      0.000 
       2      1.300     -0.200      0.200      0.000 
       3      1.300     -0.200      0.200      0.000 
       4      1.300     -0.200      0.200      0.000 
       5      1.300     -0.200      0.200      0.000 
       6      1.300     -0.200      0.200      0.000 
       7      1.300     -0.200      0.200      0.000 
       8      0.000      0.000      0.300      0.000 
       9      0.000      0.000      0.300      0.000 
      10      0.000      0.000      0.300      0.000 
      11      0.000      0.000      0.300      0.000 
      12      0.000      0.000      0.300      0.000 
      13      0.000      0.000      0.300      0.000 
      14      0.000      0.000      0.300      0.000 
      15      0.000      0.000      0.300      0.000 
      16      0.000      0.000      0.300      0.000 
      17      0.000      0.000      0.300      0.000 
      18      0.000      0.000      0.300      0.000 
      19      0.000      0.000      0.300      0.000 
      20      0.000      0.000      0.300      0.000 
      21      0.000      0.000      0.300      0.000 
      22      0.000      0.000      0.300      0.000 
      23      0.000      0.000      0.300      0.000 
      24      0.000      0.000      0.300      0.000 
      25      0.000      0.000      0.300      0.000 
      26      0.000      0.000      0.300      0.000 
      27      0.000      0.000      0.300      0.000 
      28      0.000      0.000      0.300      0.000 
      29      0.000      0.000      0.300      0.000 
      30      0.000      0.000      0.300      0.000 
      31      0.000      0.000      0.300      0.000 
      32      0.000      0.000      0.300      0.000 
      33      0.000      0.000      0.300      0.000 
      34      0.000      0.000      0.300      0.000 
      35      0.000      0.000      0.300      0.000 
      36      0.000      0.000      0.300      0.000 
      37      0.000      0.000      0.300      0.000 
      38      0.000      0.000      0.300      0.000 
      39      0.000      0.000      0.300      0.000 
      40      0.000      0.000      0.300      0.000 
      41      0.000      0.000      0.300      0.000 
      42      0.000      0.000      0.300      0.000 
      43      0.000      0.000      0.300      0.000 
      44      0.000      0.000      0.300      0.000 
      45      0.000      0.000      0.300      0.000 
      46      0.000      0.000      0.300      0.000 
      47      0.000      0.000      0.300      0.000 
      48      0.000      0.000      0.300      0.000 
      49      0.000      0.000      0.300      0.000 
      50      0.000      0.000      0.300      0.000 
      51      0.000      0.000      0.300      0.000 
      52      0.000      0.000      0.300      0.000 
      53      0.000      0.000      0.300      0.000 
      54      0.000      0.000      0.300      0.000 
      55      0.000      0.000      0.300      0.000 
      56      0.000      0.000      0.300      0.000 
      57      0.000      0.000      0.300      0.000 
      58      0.000      0.000      0.300      0.000 
      59      0.000      0.000      0.300      0.000 
      60      0.000      0.000      0.300      0.000 
      61      0.000      0.000      0.300      0.000 
      62      0.000      0.000      0.300      0.000 
      63      0.000      0.000      0.300      0.000 
      64      0.000      0.000      0.300      0.000 
      65      0.000      0.000      0.300      0.000 
      66      0.000      0.000      0.300      0.000 
      67      0.000      0.000      0.300      0.000 
      68      0.000      0.000      0.300      0.000 
      69      0.000      0.000      0.300      0.000 
      70      0.000      0.000      0.300      0.000 
      71      0.000      0.000      0.300      0.000 
      72      0.000      0.000      0.300      0.000 
      73      0.000      0.000      0.300      0.000 
      74      0.000      0.000      0.300      0.000 
      75      0.000      0.000      0.300      0.000 
      76      0.000      0.000      0.300      0.000 
      77      0.000      0.000      0.300      0.000 
      78      0.000      0.000      0.300      0.000 
      79      0.000      0.000      0.300      0.000 
      80      0.000      0.000      0.300      0.000 
      81      0.000      0.000      0.300      0.000 

Improper Coeffs 

       1      0.000      -1       2 
       2      0.000      -1       2 
       3      0.000      -1       2 
       4      0.000      -1       2 
       5      0.000      -1       2 
       6      0.000      -1       2 
       7      0.000      -1       2 
       8      0.000      -1       2 
       9      0.000      -1       2 
      10      0.000      -1       2 
      11      0.000      -1       2 
      12      0.000      -1       2 
      13      0.000      -1       2 
      14      0.000      -1       2 
      15      0.000      -1       2 
      16      0.000      -1       2 
      17      0.000      -1       2 
      18      0.000      -1       2 
      19      0.000      -1       2 
      20      0.000      -1       2 

Atoms 

     1      1      1 -0.23890000    1.000  1.00000  0.00000
     2      1      2 -0.17920000   -0.520  1.00000  0.00000
     3      1      3 -0.17830000   -1.075  1.00000  1.42367
     4      1      4 -0.17910000   -2.604  1.00180  1.42532
     5      1      5 -0.17890000   -3.154  1.00359  2.85243
     6      1      6 -0.17900000   -4.682  1.00720  2.85735
     7      1      7 -0.17910000   -5.232  1.01079  4.28449
     8      1      8 -0.17830000   -6.761  1.01620  4.28613
     9      1      9 -0.17920000   -7.314  1.02160  5.71043
    10      1     10 -0.23870000   -8.835  1.02876  5.71206
    11      1     11 0.08070000    1.379  1.00130 -1.02678
    12      1     12 0.08070000    1.391  0.11180  0.50623
    13      1     13 0.08070000    1.391  1.88762  0.50752
    14      1     14 0.08820000   -0.879  0.11679 -0.54091
    15      1     15 0.08820000   -0.880  1.88295 -0.54075
    16      1     16 0.08930000   -0.706  1.88219  1.96108
    17      1     17 0.08930000   -0.708  0.11649  1.96025
    18      1     18 0.08920000   -2.974  0.11871  0.88984
    19      1     19 0.08920000   -2.972  1.88491  0.88841
    20      1     20 0.08930000   -2.782  1.88635  3.38714
    21      1     21 0.08930000   -2.787  0.11947  3.38776
    22      1     22 0.08930000   -5.053  0.12379  2.32319
    23      1     23 0.08930000   -5.049  1.89069  2.32028
    24      1     24 0.08920000   -4.860  1.89347  4.81844
    25      1     25 0.08920000   -4.866  0.12668  4.82053
    26      1     26 0.08940000   -7.131  0.13329  3.75079
    27      1     27 0.08940000   -7.125  1.89886  3.74664
    28      1     28 0.08830000   -6.949  1.90410  6.24822
    29      1     29 0.08830000   -6.957  0.13788  6.25166
    30      1     30 0.08070000   -9.222  1.91668  5.20216
    31      1     31 0.08070000   -9.212  1.03504  6.73925
    32      1     32 0.08070000   -9.230  0.14202  5.20675

Bonds 

     1      1      2      1
     2      2      3      2
     3      3      4      3
     4      4      5      4
     5      5      6      5
     6      6      7      6
     7      7      8      7
     8      8      9      8
     9      9     10      9
    10     10     11      1
    11     11     12      1
    12     12     13      1
    13     13     14      2
    14     14     15      2
    15     15     16      3
    16     16     17      3
    17     17     18      4
    18     18     19      4
    19     19     20      5
    20     20     21      5
    21     21     22      6
    22     22     23      6
    23     23     24      7
    24     24     25      7
    25     25     26      8
    26     26     27      8
    27     27     28      9
    28     28     29      9
    29     29     30     10
    30     30     31     10
    31     31     32     10

Angles 

     1      1      1      2      3
     2      2      2      3      4
     3      3      3      4      5
     4      4      4      5      6
     5      5      5      6      7
     6      6      6      7      8
     7      7      7      8      9
     8      8      8      9     10
     9      9      2      1     11
    10     10      2      1     12
    11     11      2      1     13
    12     12      1      2     14
    13     13      1      2     15
    14     14      2      3     16
    15     15      2      3     17
    16     16      3      4     18
    17     17      3      4     19
    18     18      4      5     20
    19     19      4      5     21
    20     20      5      6     22
    21     21      5      6     23
    22     22      6      7     24
    23     23      6      7     25
    24     24      7      8     26
    25     25      7      8     27
    26     26      8      9     28
    27     27      8      9     29
    28     28      9     10     30
    29     29      9     10     31
    30     30      9     10     32
    31     31     10      9     29
    32     32     16      3     17
    33     33      3      2     14
    34     34      3      2     15
    35     35     11      1     13
    36     36     10      9     28
    37     37     26      8     27
    38     38      7      6     22
    39     39     31     10     32
    40     40     14      2     15
    41     41      7      6     23
    42     42     30     10     32
    43     43     30     10     31
    44     44      8      7     25
    45     45     11      1     12
    46     46     12      1     13
    47     47      6      5     20
    48     48     22      6     23
    49     49      5      4     19
    50     50     28      9     29
    51     51      6      5     21
    52     52      9      8     26
    53     53      4      3     16
    54     54      4      3     17
    55     55      8      7     24
    56     56      5      4     18
    57     57     24      7     25
    58     58     18      4     19
    59     59      9      8     27
    60     60     20      5     21

Dihedrals

     1      1      4      3      2      1 
     2      2      5      4      3      2 
     3      3      6      5      4      3 
     4      4      7      6      5      4 
     5      5      8      7      6      5 
     6      6      9      8      7      6 
     7      7     10      9      8      7 
     8      8     11      1      2      3 
     9      9     30     10      9      8 
    10     10     18      4      3     16 
    11     11     23      6      7      8 
    12     12     21      5      4     19 
    13     13     13      1      2      3 
    14     14     30     10      9     29 
    15     15     32     10      9     28 
    16     16     23      6      5      4 
    17     17     17      3      2     14 
    18     18     18      4      3      2 
    19     19     14      2      1     13 
    20     20     26      8      7      6 
    21     21     24      7      8      9 
    22     22     27      8      7     24 
    23     23     25      7      6      5 
    24     24     28      9      8     27 
    25     25     29      9      8     26 
    26     26     20      5      4      3 
    27     27     20      5      4     19 
    28     28     15      2      3      4 
    29     29     22      6      5     20 
    30     30     22      6      5     21 
    31     31     25      7      6     23 
    32     32     23      6      5     21 
    33     33     17      3      2     15 
    34     34     18      4      5      6 
    35     35     14      2      1     11 
    36     36     24      7      6     22 
    37     37     12      1      2      3 
    38     38     20      5      4     18 
    39     39     32     10      9      8 
    40     40     16      3      4      5 
    41     41     20      5      6      7 
    42     42     22      6      5      4 
    43     43     31     10      9      8 
    44     44     19      4      3     17 
    45     45     21      5      4     18 
    46     46     27      8      7     25 
    47     47     26      8      7     24 
    48     48     19      4      3      2 
    49     49     16      3      2      1 
    50     50     32     10      9     29 
    51     51     14      2      3      4 
    52     52     31     10      9     28 
    53     53     28      9      8      7 
    54     54     17      3      4      5 
    55     55     17      3      2      1 
    56     56     27      8      7      6 
    57     57     16      3      2     14 
    58     58     24      7      6     23 
    59     59     22      6      7      8 
    60     60     19      4      5      6 
    61     61     21      5      4      3 
    62     62     21      5      6      7 
    63     63     18      4      3     17 
    64     64     19      4      3     16 
    65     65     25      7      6     22 
    66     66     27      8      9     10 
    67     67     28      9      8     26 
    68     68     29      9      8      7 
    69     69     29      9      8     27 
    70     70     26      8      9     10 
    71     71     15      2      1     12 
    72     72     25      7      8      9 
    73     73     16      3      2     15 
    74     74     15      2      1     11 
    75     75     14      2      1     12 
    76     76     24      7      6      5 
    77     77     26      8      7     25 
    78     78     30     10      9     28 
    79     79     23      6      5     20 
    80     80     31     10      9     29 
    81     81     15      2      1     13 

Impropers

     1      1      1      2     11     12 
     2      2      1      2     11     13 
     3      3      2      1      3     14 
     4      4      2      1      3     15 
     5      5      3      2      4     16 
     6      6      3     17      2      4 
     7      7      4     18      3      5 
     8      8      4     19      5      3 
     9      9      5      4     20      6 
    10     10      5      4     21      6 
    11     11      6      5     22      7 
    12     12      6      7      5     23 
    13     13      7      8      6     24 
    14     14      7     25      6      8 
    15     15      8      9     26      7 
    16     16      8      9     27      7 
    17     17      9     10     28      8 
    18     18      9     10     29      8 
    19     19     10      9     30     31 
    20     20     10      9     30     32 

