LAMMPS data file Created by LigParGen - (Written by Leela S. Dodda)

     118 atoms
     117 bonds
     226 angles
     313 dihedrals
      74 impropers
 
     118 atom types
     117 bond types
     226 angle types
     313 dihedral types
      74 improper types
 
  -24.634050    25.365950 xlo xhi
   -2.283130    47.716870 ylo yhi
   -1.026840    48.973160 zlo zhi

Masses

       1     12.011  
       2     12.011  
       3     12.011  
       4     12.011  
       5     12.011  
       6     12.011  
       7     12.011  
       8     12.011  
       9     12.011  
      10     12.011  
      11     12.011  
      12     12.011  
      13     12.011  
      14     12.011  
      15     15.999  
      16     15.999  
      17     12.011  
      18     12.011  
      19     12.011  
      20     15.999  
      21     30.974  
      22     15.999  
      23     15.999  
      24     15.999  
      25     12.011  
      26     12.011  
      27     14.007  
      28     12.011  
      29     12.011  
      30     12.011  
      31     15.999  
      32     12.011  
      33     15.999  
      34     12.011  
      35     12.011  
      36     12.011  
      37     12.011  
      38     12.011  
      39     12.011  
      40     12.011  
      41     12.011  
      42     12.011  
      43     12.011  
      44     12.011  
      45     12.011  
      46     12.011  
      47      1.008  
      48      1.008  
      49      1.008  
      50      1.008  
      51      1.008  
      52      1.008  
      53      1.008  
      54      1.008  
      55      1.008  
      56      1.008  
      57      1.008  
      58      1.008  
      59      1.008  
      60      1.008  
      61      1.008  
      62      1.008  
      63      1.008  
      64      1.008  
      65      1.008  
      66      1.008  
      67      1.008  
      68      1.008  
      69      1.008  
      70      1.008  
      71      1.008  
      72      1.008  
      73      1.008  
      74      1.008  
      75      1.008  
      76      1.008  
      77      1.008  
      78      1.008  
      79      1.008  
      80      1.008  
      81      1.008  
      82      1.008  
      83      1.008  
      84      1.008  
      85      1.008  
      86      1.008  
      87      1.008  
      88      1.008  
      89      1.008  
      90      1.008  
      91      1.008  
      92      1.008  
      93      1.008  
      94      1.008  
      95      1.008  
      96      1.008  
      97      1.008  
      98      1.008  
      99      1.008  
     100      1.008  
     101      1.008  
     102      1.008  
     103      1.008  
     104      1.008  
     105      1.008  
     106      1.008  
     107      1.008  
     108      1.008  
     109      1.008  
     110      1.008  
     111      1.008  
     112      1.008  
     113      1.008  
     114      1.008  
     115      1.008  
     116      1.008  
     117      1.008  
     118      1.008  

Pair Coeffs 

       1      0.066  3.5000000 
       2      0.066  3.5000000 
       3      0.066  3.5000000 
       4      0.066  3.5000000 
       5      0.066  3.5000000 
       6      0.066  3.5000000 
       7      0.066  3.5000000 
       8      0.066  3.5000000 
       9      0.066  3.5000000 
      10      0.066  3.5000000 
      11      0.066  3.5000000 
      12      0.066  3.5000000 
      13      0.066  3.5000000 
      14      0.070  3.5500000 
      15      0.210  2.9600000 
      16      0.140  2.9000000 
      17      0.066  3.5000000 
      18      0.066  3.5000000 
      19      0.066  3.5000000 
      20      0.140  2.9000000 
      21      0.200  3.7400000 
      22      0.210  2.9600000 
      23      0.210  2.9600000 
      24      0.140  2.9000000 
      25      0.066  3.5000000 
      26      0.066  3.5000000 
      27      0.170  3.2500000 
      28      0.066  3.5000000 
      29      0.066  3.5000000 
      30      0.066  3.5000000 
      31      0.140  2.9000000 
      32      0.070  3.5500000 
      33      0.210  2.9600000 
      34      0.066  3.5000000 
      35      0.066  3.5000000 
      36      0.066  3.5000000 
      37      0.066  3.5000000 
      38      0.066  3.5000000 
      39      0.066  3.5000000 
      40      0.066  3.5000000 
      41      0.066  3.5000000 
      42      0.066  3.5000000 
      43      0.066  3.5000000 
      44      0.066  3.5000000 
      45      0.066  3.5000000 
      46      0.066  3.5000000 
      47      0.030  2.5000000 
      48      0.030  2.5000000 
      49      0.030  2.5000000 
      50      0.030  2.5000000 
      51      0.030  2.5000000 
      52      0.030  2.5000000 
      53      0.030  2.5000000 
      54      0.030  2.5000000 
      55      0.030  2.5000000 
      56      0.030  2.5000000 
      57      0.030  2.5000000 
      58      0.030  2.5000000 
      59      0.030  2.5000000 
      60      0.030  2.5000000 
      61      0.030  2.5000000 
      62      0.030  2.5000000 
      63      0.030  2.5000000 
      64      0.030  2.5000000 
      65      0.030  2.5000000 
      66      0.030  2.5000000 
      67      0.030  2.5000000 
      68      0.030  2.5000000 
      69      0.030  2.5000000 
      70      0.030  2.5000000 
      71      0.030  2.5000000 
      72      0.030  2.5000000 
      73      0.030  2.5000000 
      74      0.030  2.5000000 
      75      0.030  2.5000000 
      76      0.030  2.5000000 
      77      0.030  2.5000000 
      78      0.030  2.5000000 
      79      0.030  2.5000000 
      80      0.030  2.5000000 
      81      0.030  2.5000000 
      82      0.030  2.5000000 
      83      0.030  2.5000000 
      84      0.030  2.5000000 
      85      0.030  2.5000000 
      86      0.030  2.5000000 
      87      0.030  2.5000000 
      88      0.030  2.5000000 
      89      0.030  2.5000000 
      90      0.030  2.5000000 
      91      0.030  2.5000000 
      92      0.030  2.5000000 
      93      0.030  2.5000000 
      94      0.030  2.5000000 
      95      0.030  2.5000000 
      96      0.030  2.5000000 
      97      0.030  2.5000000 
      98      0.030  2.5000000 
      99      0.030  2.5000000 
     100      0.030  2.5000000 
     101      0.030  2.5000000 
     102      0.030  2.5000000 
     103      0.030  2.5000000 
     104      0.030  2.5000000 
     105      0.030  2.5000000 
     106      0.030  2.5000000 
     107      0.030  2.5000000 
     108      0.030  2.5000000 
     109      0.030  2.5000000 
     110      0.030  2.5000000 
     111      0.030  2.5000000 
     112      0.030  2.5000000 
     113      0.030  2.5000000 
     114      0.030  2.5000000 
     115      0.030  2.5000000 
     116      0.030  2.5000000 
     117      0.030  2.5000000 
     118      0.030  2.5000000 

Bond Coeffs 

       1   268.0000     1.5290 
       2   268.0000     1.5290 
       3   268.0000     1.5290 
       4   268.0000     1.5290 
       5   268.0000     1.5290 
       6   268.0000     1.5290 
       7   268.0000     1.5290 
       8   268.0000     1.5290 
       9   268.0000     1.5290 
      10   268.0000     1.5290 
      11   268.0000     1.5290 
      12   268.0000     1.5290 
      13   317.0000     1.5220 
      14   570.0000     1.2290 
      15   214.0000     1.3270 
      16   320.0000     1.4100 
      17   268.0000     1.5290 
      18   268.0000     1.5290 
      19   320.0000     1.4100 
      20   230.0000     1.6100 
      21   525.0000     1.4800 
      22   525.0000     1.4800 
      23   230.0000     1.6100 
      24   320.0000     1.4100 
      25   268.0000     1.5290 
      26   367.0000     1.4710 
      27   367.0000     1.4710 
      28   367.0000     1.4710 
      29   367.0000     1.4710 
      30   320.0000     1.4100 
      31   214.0000     1.3270 
      32   570.0000     1.2290 
      33   317.0000     1.5220 
      34   268.0000     1.5290 
      35   268.0000     1.5290 
      36   268.0000     1.5290 
      37   268.0000     1.5290 
      38   268.0000     1.5290 
      39   268.0000     1.5290 
      40   268.0000     1.5290 
      41   268.0000     1.5290 
      42   268.0000     1.5290 
      43   268.0000     1.5290 
      44   268.0000     1.5290 
      45   268.0000     1.5290 
      46   340.0000     1.0900 
      47   340.0000     1.0900 
      48   340.0000     1.0900 
      49   340.0000     1.0900 
      50   340.0000     1.0900 
      51   340.0000     1.0900 
      52   340.0000     1.0900 
      53   340.0000     1.0900 
      54   340.0000     1.0900 
      55   340.0000     1.0900 
      56   340.0000     1.0900 
      57   340.0000     1.0900 
      58   340.0000     1.0900 
      59   340.0000     1.0900 
      60   340.0000     1.0900 
      61   340.0000     1.0900 
      62   340.0000     1.0900 
      63   340.0000     1.0900 
      64   340.0000     1.0900 
      65   340.0000     1.0900 
      66   340.0000     1.0900 
      67   340.0000     1.0900 
      68   340.0000     1.0900 
      69   340.0000     1.0900 
      70   340.0000     1.0900 
      71   340.0000     1.0900 
      72   340.0000     1.0900 
      73   340.0000     1.0900 
      74   340.0000     1.0900 
      75   340.0000     1.0900 
      76   340.0000     1.0900 
      77   340.0000     1.0900 
      78   340.0000     1.0900 
      79   340.0000     1.0900 
      80   340.0000     1.0900 
      81   340.0000     1.0900 
      82   340.0000     1.0900 
      83   340.0000     1.0900 
      84   340.0000     1.0900 
      85   340.0000     1.0900 
      86   340.0000     1.0900 
      87   340.0000     1.0900 
      88   340.0000     1.0900 
      89   340.0000     1.0900 
      90   340.0000     1.0900 
      91   340.0000     1.0900 
      92   340.0000     1.0900 
      93   340.0000     1.0900 
      94   340.0000     1.0900 
      95   340.0000     1.0900 
      96   340.0000     1.0900 
      97   340.0000     1.0900 
      98   340.0000     1.0900 
      99   340.0000     1.0900 
     100   340.0000     1.0900 
     101   340.0000     1.0900 
     102   340.0000     1.0900 
     103   340.0000     1.0900 
     104   340.0000     1.0900 
     105   340.0000     1.0900 
     106   340.0000     1.0900 
     107   340.0000     1.0900 
     108   340.0000     1.0900 
     109   340.0000     1.0900 
     110   340.0000     1.0900 
     111   340.0000     1.0900 
     112   340.0000     1.0900 
     113   340.0000     1.0900 
     114   340.0000     1.0900 
     115   340.0000     1.0900 
     116   340.0000     1.0900 
     117   340.0000     1.0900 

Angle Coeffs 

       1     58.350    112.700
       2     58.350    112.700
       3     58.350    112.700
       4     58.350    112.700
       5     58.350    112.700
       6     58.350    112.700
       7     58.350    112.700
       8     58.350    112.700
       9     58.350    112.700
      10     58.350    112.700
      11     58.350    112.700
      12     63.000    111.100
      13     80.000    120.400
      14     81.000    111.400
      15     83.000    116.900
      16     50.000    109.500
      17     58.350    112.700
      18     50.000    109.500
      19    100.000    120.500
      20    100.000    108.230
      21    100.000    108.230
      22     45.000    102.600
      23    100.000    120.500
      24     50.000    109.500
      25     80.000    111.200
      26     50.000    113.000
      27     50.000    113.000
      28     50.000    113.000
      29     50.000    109.500
      30     83.000    116.900
      31     83.000    123.400
      32     81.000    111.400
      33     63.000    111.100
      34     58.350    112.700
      35     58.350    112.700
      36     58.350    112.700
      37     58.350    112.700
      38     58.350    112.700
      39     58.350    112.700
      40     58.350    112.700
      41     58.350    112.700
      42     58.350    112.700
      43     58.350    112.700
      44     58.350    112.700
      45     37.500    110.700
      46     37.500    110.700
      47     37.500    110.700
      48     37.500    110.700
      49     37.500    110.700
      50     37.500    110.700
      51     37.500    110.700
      52     37.500    110.700
      53     37.500    110.700
      54     37.500    110.700
      55     37.500    110.700
      56     37.500    110.700
      57     37.500    110.700
      58     37.500    110.700
      59     37.500    110.700
      60     37.500    110.700
      61     37.500    110.700
      62     37.500    110.700
      63     37.500    110.700
      64     37.500    110.700
      65     37.500    110.700
      66     37.500    110.700
      67     37.500    110.700
      68     37.500    110.700
      69     37.500    110.700
      70     37.500    110.700
      71     37.500    110.700
      72     35.000    109.500
      73     35.000    109.500
      74     37.500    110.700
      75     37.500    110.700
      76     37.500    110.700
      77     35.000    109.500
      78     35.000    109.500
      79     37.500    110.700
      80     37.500    110.700
      81     35.000    109.500
      82     35.000    109.500
      83     35.000    109.500
      84     35.000    109.500
      85     35.000    109.500
      86     35.000    109.500
      87     35.000    109.500
      88     35.000    109.500
      89     35.000    109.500
      90     35.000    109.500
      91     35.000    109.500
      92     37.500    110.700
      93     37.500    110.700
      94     37.500    110.700
      95     37.500    110.700
      96     37.500    110.700
      97     37.500    110.700
      98     37.500    110.700
      99     37.500    110.700
     100     37.500    110.700
     101     37.500    110.700
     102     37.500    110.700
     103     37.500    110.700
     104     37.500    110.700
     105     37.500    110.700
     106     37.500    110.700
     107     37.500    110.700
     108     37.500    110.700
     109     37.500    110.700
     110     37.500    110.700
     111     37.500    110.700
     112     37.500    110.700
     113     37.500    110.700
     114     37.500    110.700
     115     37.500    110.700
     116     37.500    110.700
     117     33.000    107.800
     118     33.000    107.800
     119     33.000    107.800
     120     37.500    110.700
     121     33.000    107.800
     122     33.000    107.800
     123     33.000    107.800
     124     33.000    107.800
     125     37.500    110.700
     126     37.500    110.700
     127     37.500    110.700
     128     35.000    109.500
     129     33.000    107.800
     130     80.000    120.400
     131     37.500    110.700
     132     37.500    110.700
     133     50.000    109.500
     134     33.000    107.800
     135     33.000    107.800
     136     33.000    107.800
     137     37.500    110.700
     138     37.500    110.700
     139     37.500    110.700
     140     37.500    110.700
     141     35.000    109.500
     142     33.000    107.800
     143     37.500    110.700
     144     37.500    110.700
     145     37.500    110.700
     146     37.500    110.700
     147     35.000    109.500
     148     33.000    107.800
     149     33.000    107.800
     150     83.000    123.400
     151     63.570    108.400
     152     37.500    110.700
     153     33.000    107.800
     154     37.500    110.700
     155     37.500    110.700
     156     37.500    110.700
     157     37.500    110.700
     158     33.000    107.800
     159     35.000    109.500
     160     37.500    110.700
     161     33.000    107.800
     162     37.500    110.700
     163     37.500    110.700
     164     37.500    110.700
     165     33.000    107.800
     166     37.500    110.700
     167     33.000    107.800
     168     33.000    107.800
     169     33.000    107.800
     170     37.500    110.700
     171    100.000    108.230
     172     37.500    110.700
     173     33.000    107.800
     174     37.500    110.700
     175     37.500    110.700
     176     33.000    107.800
     177     37.500    110.700
     178     37.500    110.700
     179     37.500    110.700
     180     33.000    107.800
     181     50.000    113.000
     182     37.500    110.700
     183     37.500    110.700
     184     37.500    110.700
     185     37.500    110.700
     186     37.500    110.700
     187     33.000    107.800
     188     33.000    107.800
     189     33.000    107.800
     190    100.000    108.230
     191     33.000    107.800
     192     33.000    107.800
     193     33.000    107.800
     194     33.000    107.800
     195     33.000    107.800
     196     37.500    110.700
     197     37.500    110.700
     198     37.500    110.700
     199     50.000    113.000
     200     37.500    110.700
     201     33.000    107.800
     202     33.000    107.800
     203     37.500    110.700
     204     33.000    107.800
     205     33.000    107.800
     206     33.000    107.800
     207     35.000    109.500
     208     37.500    110.700
     209     37.500    110.700
     210     33.000    107.800
     211     33.000    107.800
     212     33.000    107.800
     213     37.500    110.700
     214     37.500    110.700
     215     33.000    107.800
     216     50.000    113.000
     217     35.000    109.500
     218     33.000    107.800
     219     35.000    109.500
     220     37.500    110.700
     221     37.500    110.700
     222     33.000    107.800
     223     37.500    110.700
     224     37.500    110.700
     225     37.500    110.700
     226     37.500    110.700

Dihedral Coeffs  

       1      1.300     -0.200      0.200      0.000 
       2      1.300     -0.200      0.200      0.000 
       3      1.300     -0.200      0.200      0.000 
       4      1.300     -0.200      0.200      0.000 
       5      1.300     -0.200      0.200      0.000 
       6      1.300     -0.200      0.200      0.000 
       7      1.300     -0.200      0.200      0.000 
       8      1.300     -0.200      0.200      0.000 
       9      1.300     -0.200      0.200      0.000 
      10      1.300     -0.200      0.200      0.000 
      11     -2.060     -0.313      0.315      0.000 
      12      0.000      0.000      0.000      0.000 
      13      4.669      5.124      0.000      0.000 
      14     -1.220     -0.126      0.422      0.000 
      15      1.711     -0.500      0.663      0.000 
      16      1.711     -0.500      0.663      0.000 
      17     -1.420     -0.620      0.100      0.000 
      18      0.000      0.000      0.000      0.000 
      19      0.000      0.000      0.000      0.000 
      20     -1.420     -0.620      0.100      0.000 
      21      8.000      0.000      0.000      0.000 
      22      1.438     -0.124      0.264      0.000 
      23     -1.220     -0.126      0.422      0.000 
      24      0.000      5.124      0.000      0.000 
      25      0.000      0.000     -0.553      0.000 
      26     -2.060     -0.313      0.315      0.000 
      27      1.300     -0.200      0.200      0.000 
      28      1.300     -0.200      0.200      0.000 
      29      1.300     -0.200      0.200      0.000 
      30      1.300     -0.200      0.200      0.000 
      31      1.300     -0.200      0.200      0.000 
      32      1.300     -0.200      0.200      0.000 
      33      1.300     -0.200      0.200      0.000 
      34      1.300     -0.200      0.200      0.000 
      35      1.300     -0.200      0.200      0.000 
      36      1.300     -0.200      0.200      0.000 
      37      0.000      0.000      0.300      0.000 
      38      0.000      0.000      0.302      0.000 
      39      0.000      0.000      0.302      0.000 
      40      0.000      0.000      0.302      0.000 
      41      0.000      0.000      0.300      0.000 
      42      0.000      0.000      0.300      0.000 
      43      0.000      0.000      0.300      0.000 
      44      0.000      0.000      0.300      0.000 
      45      0.000      0.000      0.468      0.000 
      46      0.000      0.000      0.300      0.000 
      47      0.000      0.000      0.300      0.000 
      48      0.000      0.000      0.300      0.000 
      49      0.000      0.000      0.300      0.000 
      50      0.000      0.000      0.300      0.000 
      51      0.000      0.000      0.300      0.000 
      52      0.000      0.000      0.300      0.000 
      53      0.000      0.000      0.300      0.000 
      54      0.000      0.000      0.300      0.000 
      55      0.000      0.000      0.300      0.000 
      56      0.000      0.000      0.300      0.000 
      57      0.000      0.000      0.302      0.000 
      58      0.000      0.000      0.300      0.000 
      59      0.000      0.000      0.132      0.000 
      60      0.000      0.000      0.300      0.000 
      61      0.000      0.000      0.300      0.000 
      62      0.000      0.000      0.300      0.000 
      63      0.000      0.000      0.300      0.000 
      64      0.000      0.000      0.300      0.000 
      65      0.000      0.000      0.300      0.000 
      66      0.000      0.000     -0.100      0.000 
      67      0.000      0.000      0.300      0.000 
      68      0.000      0.000      0.300      0.000 
      69      0.000      0.000      0.300      0.000 
      70      0.000      0.000      0.300      0.000 
      71      1.438     -0.124      0.264      0.000 
      72      0.000      0.000      0.300      0.000 
      73      0.000      0.000      0.300      0.000 
      74      0.000      0.000      0.198      0.000 
      75      0.000      0.000      0.302      0.000 
      76      0.000      0.000      0.300      0.000 
      77      0.000      0.000      0.000      0.000 
      78      0.000      0.000      0.300      0.000 
      79      0.000      0.000      0.300      0.000 
      80      0.000      0.000      0.300      0.000 
      81      0.000      0.000      0.300      0.000 
      82      0.000      0.000      0.302      0.000 
      83      0.000      0.000      0.300      0.000 
      84      0.000      0.000      0.300      0.000 
      85      0.000      0.000      0.300      0.000 
      86      0.000      0.000      0.300      0.000 
      87      0.000      0.000      0.300      0.000 
      88      0.000      0.000      0.300      0.000 
      89      0.000      0.000      0.132      0.000 
      90      0.000      0.000      0.300      0.000 
      91      0.000      0.000      0.300      0.000 
      92      0.000      0.000      0.300      0.000 
      93      0.000      0.000      0.300      0.000 
      94      0.000      0.000      0.300      0.000 
      95      0.000      0.000      0.300      0.000 
      96      0.000      0.000     -0.100      0.000 
      97      0.000      0.000      0.300      0.000 
      98      0.000      0.000      0.468      0.000 
      99     -1.220     -0.126      0.422      0.000 
     100      0.000      0.000      0.300      0.000 
     101      0.000      0.000      0.300      0.000 
     102      0.000      0.000      0.300      0.000 
     103      0.000      0.000      0.300      0.000 
     104     -0.550      0.000      0.000      0.000 
     105      0.000      0.000      0.300      0.000 
     106      0.000      0.000      0.000      0.000 
     107      0.000      0.000      0.300      0.000 
     108      0.000      0.000      0.302      0.000 
     109      0.000      0.000      0.000      0.000 
     110      0.000      0.000      0.300      0.000 
     111      0.000      0.000      0.300      0.000 
     112      0.000      0.000      0.300      0.000 
     113      0.000      0.000      0.300      0.000 
     114      0.000      0.000      0.300      0.000 
     115      0.000      0.000      0.302      0.000 
     116      0.000      0.000      0.300      0.000 
     117      0.000      0.000      0.302      0.000 
     118      0.000      0.000      0.300      0.000 
     119      0.000      0.000      0.300      0.000 
     120      0.000      0.000      0.300      0.000 
     121      0.000      0.000      0.300      0.000 
     122      0.000      0.000      0.000      0.000 
     123      0.000      0.000      0.300      0.000 
     124      0.000      0.000      0.300      0.000 
     125      0.000      0.000      0.302      0.000 
     126      0.000      0.000      0.300      0.000 
     127      0.000      0.000      0.300      0.000 
     128      0.000      0.000      0.300      0.000 
     129      0.000      0.000      0.300      0.000 
     130      1.438     -0.124      0.264      0.000 
     131      0.000      0.000      0.300      0.000 
     132      0.000      0.000      0.302      0.000 
     133      0.000      0.000      0.302      0.000 
     134      0.000      0.000      0.300      0.000 
     135      0.000      0.000      0.300      0.000 
     136      0.000      0.000      0.300      0.000 
     137      0.000      0.000      0.300      0.000 
     138      0.000      0.000      0.302      0.000 
     139      0.000      0.000      0.300      0.000 
     140      0.000      0.000      0.300      0.000 
     141      0.000      0.000      0.300      0.000 
     142      0.000      0.000      0.302      0.000 
     143      0.000      0.000      0.000      0.000 
     144      0.000      0.000      0.300      0.000 
     145      0.000      0.000      0.302      0.000 
     146      0.000      0.000      0.300      0.000 
     147      0.000      0.000      0.300      0.000 
     148      0.000      0.000      0.300      0.000 
     149      0.000      0.000      0.302      0.000 
     150      0.000      0.000      0.468      0.000 
     151      0.000      0.000     -0.100      0.000 
     152      0.000      0.000      0.302      0.000 
     153      0.000      0.000      0.300      0.000 
     154      0.000      0.000      0.300      0.000 
     155      0.000      0.000      0.302      0.000 
     156      0.000      0.000      0.300      0.000 
     157      0.000      0.000      0.300      0.000 
     158      0.000      0.000      0.300      0.000 
     159      0.000      0.000      0.300      0.000 
     160      0.000      0.000      0.300      0.000 
     161      0.000      0.000      0.468      0.000 
     162      0.000      0.000      0.300      0.000 
     163      0.000      0.000      0.300      0.000 
     164      0.000      0.000      0.300      0.000 
     165      0.000      0.000      0.300      0.000 
     166      0.000      0.000      0.300      0.000 
     167      0.000      0.000      0.300      0.000 
     168      0.000      0.000      0.300      0.000 
     169      0.000      0.000      0.300      0.000 
     170      0.000      0.000      0.302      0.000 
     171      0.000      0.000      0.300      0.000 
     172      0.000      0.000      0.300      0.000 
     173      0.000      0.000      0.300      0.000 
     174      0.000      0.000      0.300      0.000 
     175      0.000      0.000      0.300      0.000 
     176      0.000      0.000      0.300      0.000 
     177      0.000      0.000      0.300      0.000 
     178      0.000      0.000      0.300      0.000 
     179      0.000      0.000      0.300      0.000 
     180      0.000      0.000      0.302      0.000 
     181      0.000      0.000      0.300      0.000 
     182      0.000      0.000      0.300      0.000 
     183      0.000      0.000      0.300      0.000 
     184      0.000      0.000      0.300      0.000 
     185      0.000      0.000      0.300      0.000 
     186      0.000      0.000      0.300      0.000 
     187      0.000      0.000      0.300      0.000 
     188      0.000      0.000      0.468      0.000 
     189      0.000      0.000      0.300      0.000 
     190      0.000      0.000      0.302      0.000 
     191      0.000      0.000      0.302      0.000 
     192      0.000      0.000      0.300      0.000 
     193      0.000      0.000      0.300      0.000 
     194      0.000      0.000     -0.553      0.000 
     195      0.000      0.000      0.300      0.000 
     196      0.000      0.000      0.300      0.000 
     197      0.000      0.000      0.300      0.000 
     198      0.000      0.000      0.300      0.000 
     199      0.000      0.000      0.300      0.000 
     200      0.000      0.000      0.300      0.000 
     201      0.000      0.000      0.300      0.000 
     202      0.000      0.000      0.300      0.000 
     203      0.000      0.000      0.300      0.000 
     204      0.000      0.000      0.300      0.000 
     205      0.000      0.000      0.302      0.000 
     206      0.000      0.000      0.300      0.000 
     207      0.000      0.000      0.300      0.000 
     208      0.000      0.000      0.300      0.000 
     209      0.000      0.000      0.300      0.000 
     210      0.000      0.000      0.300      0.000 
     211      0.000      0.000      0.300      0.000 
     212      0.000      0.000      0.300      0.000 
     213      0.000      0.000      0.300      0.000 
     214      0.000      0.000      0.300      0.000 
     215      0.000      0.000      0.300      0.000 
     216      0.000      0.000      0.132      0.000 
     217      0.000      0.000      0.000      0.000 
     218      0.000      0.000      0.300      0.000 
     219      0.000      0.000      0.300      0.000 
     220      0.000      0.000      0.300      0.000 
     221      0.000      0.000      0.300      0.000 
     222      0.000      0.000      0.300      0.000 
     223      0.000      0.000      0.300      0.000 
     224      0.000      0.000      0.300      0.000 
     225      0.000      0.000      0.000      0.000 
     226      0.000      0.000      0.132      0.000 
     227      0.000      0.000      0.300      0.000 
     228      0.000      0.000      0.300      0.000 
     229      0.000      0.000      0.300      0.000 
     230      0.000      0.000      0.302      0.000 