LAMMPS data file Created by LigParGen - (Written by Leela S. Dodda)

     130 atoms
     129 bonds
     250 angles
     349 dihedrals
      82 impropers
 
     130 atom types
     129 bond types
     250 angle types
     349 dihedral types
      82 improper types
 
   -8.976950    41.023050 xlo xhi
   -4.467510    45.532490 ylo yhi
  -20.701590    29.298410 zlo zhi

Masses

       1     12.011  
       2     12.011  
       3     15.999  
       4     30.974  
       5     15.999  
       6     15.999  
       7     15.999  
       8     12.011  
       9     12.011  
      10     14.007  
      11     12.011  
      12     12.011  
      13     12.011  
      14      1.008  
      15     15.999  
      16     12.011  
      17     12.011  
      18     12.011  
      19     12.011  
      20     12.011  
      21     12.011  
      22     12.011  
      23     12.011  
      24     12.011  
      25     12.011  
      26     12.011  
      27     12.011  
      28     12.011  
      29     12.011  
      30     12.011  
      31     12.011  
      32     15.999  
      33     12.011  
      34     15.999  
      35     12.011  
      36     12.011  
      37     12.011  
      38     12.011  
      39     12.011  
      40     12.011  
      41     12.011  
      42     12.011  
      43     12.011  
      44     12.011  
      45     12.011  
      46     12.011  
      47     12.011  
      48     12.011  
      49     12.011  
      50     12.011  
      51     15.999  
      52      1.008  
      53      1.008  
      54      1.008  
      55      1.008  
      56      1.008  
      57      1.008  
      58      1.008  
      59      1.008  
      60      1.008  
      61      1.008  
      62      1.008  
      63      1.008  
      64      1.008  
      65      1.008  
      66      1.008  
      67      1.008  
      68      1.008  
      69      1.008  
      70      1.008  
      71      1.008  
      72      1.008  
      73      1.008  
      74      1.008  
      75      1.008  
      76      1.008  
      77      1.008  
      78      1.008  
      79      1.008  
      80      1.008  
      81      1.008  
      82      1.008  
      83      1.008  
      84      1.008  
      85      1.008  
      86      1.008  
      87      1.008  
      88      1.008  
      89      1.008  
      90      1.008  
      91      1.008  
      92      1.008  
      93      1.008  
      94      1.008  
      95      1.008  
      96      1.008  
      97      1.008  
      98      1.008  
      99      1.008  
     100      1.008  
     101      1.008  
     102      1.008  
     103      1.008  
     104      1.008  
     105      1.008  
     106      1.008  
     107      1.008  
     108      1.008  
     109      1.008  
     110      1.008  
     111      1.008  
     112      1.008  
     113      1.008  
     114      1.008  
     115      1.008  
     116      1.008  
     117      1.008  
     118      1.008  
     119      1.008  
     120      1.008  
     121      1.008  
     122      1.008  
     123      1.008  
     124      1.008  
     125      1.008  
     126      1.008  
     127      1.008  
     128      1.008  
     129      1.008  
     130      1.008  

Pair Coeffs 

       1      0.066  3.5000000 
       2      0.066  3.5000000 
       3      0.140  2.9000000 
       4      0.200  3.7400000 
       5      0.210  2.9600000 
       6      0.210  2.9600000 
       7      0.140  2.9000000 
       8      0.066  3.5000000 
       9      0.066  3.5000000 
      10      0.170  3.2500000 
      11      0.066  3.5000000 
      12      0.066  3.5000000 
      13      0.066  3.5000000 
      14      0.030  2.5000000 
      15      0.140  2.9000000 
      16      0.070  3.5500000 
      17      0.066  3.5000000 
      18      0.066  3.5000000 
      19      0.066  3.5000000 
      20      0.066  3.5000000 
      21      0.066  3.5000000 
      22      0.066  3.5000000 
      23      0.066  3.5000000 
      24      0.066  3.5000000 
      25      0.066  3.5000000 
      26      0.066  3.5000000 
      27      0.066  3.5000000 
      28      0.066  3.5000000 
      29      0.066  3.5000000 
      30      0.066  3.5000000 
      31      0.066  3.5000000 
      32      0.210  2.9600000 
      33      0.066  3.5000000 
      34      0.140  2.9000000 
      35      0.070  3.5500000 
      36      0.066  3.5000000 
      37      0.066  3.5000000 
      38      0.066  3.5000000 
      39      0.066  3.5000000 
      40      0.066  3.5000000 
      41      0.066  3.5000000 
      42      0.066  3.5000000 
      43      0.066  3.5000000 
      44      0.066  3.5000000 
      45      0.066  3.5000000 
      46      0.066  3.5000000 
      47      0.066  3.5000000 
      48      0.066  3.5000000 
      49      0.066  3.5000000 
      50      0.066  3.5000000 
      51      0.210  2.9600000 
      52      0.030  2.5000000 
      53      0.030  2.5000000 
      54      0.030  2.5000000 
      55      0.030  2.5000000 
      56      0.030  2.5000000 
      57      0.030  2.5000000 
      58      0.030  2.5000000 
      59      0.030  2.5000000 
      60      0.030  2.5000000 
      61      0.030  2.5000000 
      62      0.030  2.5000000 
      63      0.030  2.5000000 
      64      0.030  2.5000000 
      65      0.030  2.5000000 
      66      0.030  2.5000000 
      67      0.030  2.5000000 
      68      0.030  2.5000000 
      69      0.030  2.5000000 
      70      0.030  2.5000000 
      71      0.030  2.5000000 
      72      0.030  2.5000000 
      73      0.030  2.5000000 
      74      0.030  2.5000000 
      75      0.030  2.5000000 
      76      0.030  2.5000000 
      77      0.030  2.5000000 
      78      0.030  2.5000000 
      79      0.030  2.5000000 
      80      0.030  2.5000000 
      81      0.030  2.5000000 
      82      0.030  2.5000000 
      83      0.030  2.5000000 
      84      0.030  2.5000000 
      85      0.030  2.5000000 
      86      0.030  2.5000000 
      87      0.030  2.5000000 
      88      0.030  2.5000000 
      89      0.030  2.5000000 
      90      0.030  2.5000000 
      91      0.030  2.5000000 
      92      0.030  2.5000000 
      93      0.030  2.5000000 
      94      0.030  2.5000000 
      95      0.030  2.5000000 
      96      0.030  2.5000000 
      97      0.030  2.5000000 
      98      0.030  2.5000000 
      99      0.030  2.5000000 
     100      0.030  2.5000000 
     101      0.030  2.5000000 
     102      0.030  2.5000000 
     103      0.030  2.5000000 
     104      0.030  2.5000000 
     105      0.030  2.5000000 
     106      0.030  2.5000000 
     107      0.030  2.5000000 
     108      0.030  2.5000000 
     109      0.030  2.5000000 
     110      0.030  2.5000000 
     111      0.030  2.5000000 
     112      0.030  2.5000000 
     113      0.030  2.5000000 
     114      0.030  2.5000000 
     115      0.030  2.5000000 
     116      0.030  2.5000000 
     117      0.030  2.5000000 
     118      0.030  2.5000000 
     119      0.030  2.5000000 
     120      0.030  2.5000000 
     121      0.030  2.5000000 
     122      0.030  2.5000000 
     123      0.030  2.5000000 
     124      0.030  2.5000000 
     125      0.030  2.5000000 
     126      0.030  2.5000000 
     127      0.030  2.5000000 
     128      0.030  2.5000000 
     129      0.030  2.5000000 
     130      0.030  2.5000000 

Bond Coeffs 

       1   268.0000     1.5290 
       2   320.0000     1.4100 
       3   230.0000     1.6100 
       4   525.0000     1.4800 
       5   525.0000     1.4800 
       6   230.0000     1.6100 
       7   320.0000     1.4100 
       8   268.0000     1.5290 
       9   367.0000     1.4710 
      10   367.0000     1.4710 
      11   367.0000     1.4710 
      12   367.0000     1.4710 
      13   340.0000     1.0900 
      14   320.0000     1.4100 
      15   214.0000     1.3270 
      16   317.0000     1.5220 
      17   268.0000     1.5290 
      18   268.0000     1.5290 
      19   268.0000     1.5290 
      20   268.0000     1.5290 
      21   268.0000     1.5290 
      22   268.0000     1.5290 
      23   268.0000     1.5290 
      24   268.0000     1.5290 
      25   268.0000     1.5290 
      26   268.0000     1.5290 
      27   268.0000     1.5290 
      28   268.0000     1.5290 
      29   268.0000     1.5290 
      30   268.0000     1.5290 
      31   570.0000     1.2290 
      32   268.0000     1.5290 
      33   320.0000     1.4100 
      34   214.0000     1.3270 
      35   317.0000     1.5220 
      36   268.0000     1.5290 
      37   268.0000     1.5290 
      38   268.0000     1.5290 
      39   268.0000     1.5290 
      40   268.0000     1.5290 
      41   268.0000     1.5290 
      42   268.0000     1.5290 
      43   268.0000     1.5290 
      44   268.0000     1.5290 
      45   268.0000     1.5290 
      46   268.0000     1.5290 
      47   268.0000     1.5290 
      48   268.0000     1.5290 
      49   268.0000     1.5290 
      50   570.0000     1.2290 
      51   340.0000     1.0900 
      52   340.0000     1.0900 
      53   340.0000     1.0900 
      54   340.0000     1.0900 
      55   340.0000     1.0900 
      56   340.0000     1.0900 
      57   340.0000     1.0900 
      58   340.0000     1.0900 
      59   340.0000     1.0900 
      60   340.0000     1.0900 
      61   340.0000     1.0900 
      62   340.0000     1.0900 
      63   340.0000     1.0900 
      64   340.0000     1.0900 
      65   340.0000     1.0900 
      66   340.0000     1.0900 
      67   340.0000     1.0900 
      68   340.0000     1.0900 
      69   340.0000     1.0900 
      70   340.0000     1.0900 
      71   340.0000     1.0900 
      72   340.0000     1.0900 
      73   340.0000     1.0900 
      74   340.0000     1.0900 
      75   340.0000     1.0900 
      76   340.0000     1.0900 
      77   340.0000     1.0900 
      78   340.0000     1.0900 
      79   340.0000     1.0900 
      80   340.0000     1.0900 
      81   340.0000     1.0900 
      82   340.0000     1.0900 
      83   340.0000     1.0900 
      84   340.0000     1.0900 
      85   340.0000     1.0900 
      86   340.0000     1.0900 
      87   340.0000     1.0900 
      88   340.0000     1.0900 
      89   340.0000     1.0900 
      90   340.0000     1.0900 
      91   340.0000     1.0900 
      92   340.0000     1.0900 
      93   340.0000     1.0900 
      94   340.0000     1.0900 
      95   340.0000     1.0900 
      96   340.0000     1.0900 
      97   340.0000     1.0900 
      98   340.0000     1.0900 
      99   340.0000     1.0900 
     100   340.0000     1.0900 
     101   340.0000     1.0900 
     102   340.0000     1.0900 
     103   340.0000     1.0900 
     104   340.0000     1.0900 
     105   340.0000     1.0900 
     106   340.0000     1.0900 
     107   340.0000     1.0900 
     108   340.0000     1.0900 
     109   340.0000     1.0900 
     110   340.0000     1.0900 
     111   340.0000     1.0900 
     112   340.0000     1.0900 
     113   340.0000     1.0900 
     114   340.0000     1.0900 
     115   340.0000     1.0900 
     116   340.0000     1.0900 
     117   340.0000     1.0900 
     118   340.0000     1.0900 
     119   340.0000     1.0900 
     120   340.0000     1.0900 
     121   340.0000     1.0900 
     122   340.0000     1.0900 
     123   340.0000     1.0900 
     124   340.0000     1.0900 
     125   340.0000     1.0900 
     126   340.0000     1.0900 
     127   340.0000     1.0900 
     128   340.0000     1.0900 
     129   340.0000     1.0900 

Angle Coeffs 

       1     50.000    109.500
       2    100.000    120.500
       3    100.000    108.230
       4    100.000    108.230
       5     45.000    102.600
       6    100.000    120.500
       7     50.000    109.500
       8     80.000    111.200
       9     50.000    113.000
      10     50.000    113.000
      11     50.000    113.000
      12     37.500    110.700
      13     50.000    109.500
      14     83.000    116.900
      15     81.000    111.400
      16     63.000    111.100
      17     58.350    112.700
      18     58.350    112.700
      19     58.350    112.700
      20     58.350    112.700
      21     58.350    112.700
      22     58.350    112.700
      23     58.350    112.700
      24     58.350    112.700
      25     58.350    112.700
      26     58.350    112.700
      27     58.350    112.700
      28     58.350    112.700
      29     58.350    112.700
      30     83.000    123.400
      31     58.350    112.700
      32     50.000    109.500
      33     83.000    116.900
      34     81.000    111.400
      35     63.000    111.100
      36     58.350    112.700
      37     58.350    112.700
      38     58.350    112.700
      39     58.350    112.700
      40     58.350    112.700
      41     58.350    112.700
      42     58.350    112.700
      43     58.350    112.700
      44     58.350    112.700
      45     58.350    112.700
      46     58.350    112.700
      47     58.350    112.700
      48     58.350    112.700
      49     83.000    123.400
      50     37.500    110.700
      51     37.500    110.700
      52     35.000    109.500
      53     35.000    109.500
      54     37.500    110.700
      55     37.500    110.700
      56     35.000    109.500
      57     35.000    109.500
      58     35.000    109.500
      59     35.000    109.500
      60     35.000    109.500
      61     35.000    109.500
      62     35.000    109.500
      63     35.000    109.500
      64     35.000    109.500
      65     35.000    109.500
      66     35.000    109.500
      67     37.500    110.700
      68     37.500    110.700
      69     37.500    110.700
      70     37.500    110.700
      71     37.500    110.700
      72     37.500    110.700
      73     37.500    110.700
      74     37.500    110.700
      75     37.500    110.700
      76     37.500    110.700
      77     37.500    110.700
      78     37.500    110.700
      79     37.500    110.700
      80     37.500    110.700
      81     37.500    110.700
      82     37.500    110.700
      83     37.500    110.700
      84     37.500    110.700
      85     37.500    110.700
      86     37.500    110.700
      87     37.500    110.700
      88     37.500    110.700
      89     37.500    110.700
      90     37.500    110.700
      91     37.500    110.700
      92     37.500    110.700
      93     37.500    110.700
      94     37.500    110.700
      95     37.500    110.700
      96     37.500    110.700
      97     37.500    110.700
      98     35.000    109.500
      99     35.000    109.500
     100     37.500    110.700
     101     37.500    110.700
     102     37.500    110.700
     103     37.500    110.700
     104     37.500    110.700
     105     37.500    110.700
     106     37.500    110.700
     107     37.500    110.700
     108     37.500    110.700
     109     37.500    110.700
     110     37.500    110.700
     111     37.500    110.700
     112     37.500    110.700
     113     37.500    110.700
     114     37.500    110.700
     115     37.500    110.700
     116     37.500    110.700
     117     37.500    110.700
     118     37.500    110.700
     119     37.500    110.700
     120     37.500    110.700
     121     37.500    110.700
     122     37.500    110.700
     123     37.500    110.700
     124     37.500    110.700
     125     37.500    110.700
     126     37.500    110.700
     127     37.500    110.700
     128     37.500    110.700
     129     50.000    113.000
     130     37.500    110.700
     131     37.500    110.700
     132     37.500    110.700
     133     37.500    110.700
     134     33.000    107.800
     135     33.000    107.800
     136    100.000    108.230
     137     33.000    107.800
     138     37.500    110.700
     139     33.000    107.800
     140     37.500    110.700
     141     35.000    109.500
     142     35.000    109.500
     143     33.000    107.800
     144     33.000    107.800
     145     80.000    120.400
     146     37.500    110.700
     147     37.500    110.700
     148     33.000    107.800
     149     37.500    110.700
     150     33.000    107.800
     151     37.500    110.700
     152     33.000    107.800
     153     35.000    109.500
     154     37.500    110.700
     155     37.500    110.700
     156     37.500    110.700
     157     37.500    110.700
     158     37.500    110.700
     159     37.500    110.700
     160     33.000    107.800
     161     33.000    107.800
     162     37.500    110.700
     163     63.570    108.400
     164     37.500    110.700
     165     33.000    107.800
     166     37.500    110.700
     167     37.500    110.700
     168     33.000    107.800
     169     37.500    110.700
     170     33.000    107.800
     171     33.000    107.800
     172     37.500    110.700
     173     33.000    107.800
     174     35.000    109.500
     175     37.500    110.700
     176     37.500    110.700
     177     33.000    107.800
     178     33.000    107.800
     179     37.500    110.700
     180     33.000    107.800
     181     33.000    107.800
     182     33.000    107.800
     183     37.500    110.700
     184     37.500    110.700
     185     33.000    107.800
     186     37.500    110.700
     187     33.000    107.800
     188     50.000    113.000
     189     37.500    110.700
     190     33.000    107.800
     191     37.500    110.700
     192     33.000    107.800
     193     37.500    110.700
     194     37.500    110.700
     195     33.000    107.800
     196     37.500    110.700
     197     33.000    107.800
     198     50.000    109.500
     199     37.500    110.700
     200     37.500    110.700
     201     37.500    110.700
     202     33.000    107.800
     203     37.500    110.700
     204     33.000    107.800
     205     33.000    107.800
     206     37.500    110.700
     207     33.000    107.800
     208     37.500    110.700
     209     37.500    110.700
     210     37.500    110.700
     211     37.500    110.700
     212     37.500    110.700
     213     33.000    107.800
     214     33.000    107.800
     215     33.000    107.800
     216     35.000    109.500
     217     33.000    107.800
     218     37.500    110.700
     219     37.500    110.700
     220     33.000    107.800
     221    100.000    108.230
     222     33.000    107.800
     223     37.500    110.700
     224     37.500    110.700
     225     50.000    113.000
     226     37.500    110.700
     227     37.500    110.700
     228     33.000    107.800
     229     33.000    107.800
     230     33.000    107.800
     231     37.500    110.700
     232     37.500    110.700
     233     35.000    109.500
     234     37.500    110.700
     235     33.000    107.800
     236     80.000    120.400
     237     35.000    109.500
     238     37.500    110.700
     239     37.500    110.700
     240     37.500    110.700
     241     37.500    110.700
     242     37.500    110.700
     243     37.500    110.700
     244     33.000    107.800
     245     37.500    110.700
     246     33.000    107.800
     247     33.000    107.800
     248     33.000    107.800
     249     33.000    107.800
     250     33.000    107.800

Dihedral Coeffs  

       1     -1.420     -0.620      0.100      0.000 
       2      0.000      0.000      0.000      0.000 
       3      0.000      0.000      0.000      0.000 
       4     -1.420     -0.620      0.100      0.000 
       5      8.000      0.000      0.000      0.000 
       6      1.438     -0.124      0.264      0.000 
       7      0.000      0.000      0.468      0.000 
       8     -1.220     -0.126      0.422      0.000 
       9      4.669      5.124      0.000      0.000 
      10      0.000      0.000     -0.553      0.000 
      11     -2.060     -0.313      0.315      0.000 
      12      1.300     -0.200      0.200      0.000 
      13      1.300     -0.200      0.200      0.000 
      14      1.300     -0.200      0.200      0.000 
      15      1.300     -0.200      0.200      0.000 
      16      1.300     -0.200      0.200      0.000 
      17      1.300     -0.200      0.200      0.000 
      18      1.300     -0.200      0.200      0.000 
      19      1.300     -0.200      0.200      0.000 
      20      1.300     -0.200      0.200      0.000 
      21      1.300     -0.200      0.200      0.000 
      22      1.300     -0.200      0.200      0.000 
      23      1.300     -0.200      0.200      0.000 
      24      1.711     -0.500      0.663      0.000 
      25     -1.220     -0.126      0.422      0.000 
      26      4.669      5.124      0.000      0.000 
      27      0.000      0.000     -0.553      0.000 
      28     -2.060     -0.313      0.315      0.000 
      29      1.300     -0.200      0.200      0.000 
      30      1.300     -0.200      0.200      0.000 
      31      1.300     -0.200      0.200      0.000 
      32      1.300     -0.200      0.200      0.000 
      33      1.300     -0.200      0.200      0.000 
      34      1.300     -0.200      0.200      0.000 
      35      1.300     -0.200      0.200      0.000 
      36      1.300     -0.200      0.200      0.000 
      37      1.300     -0.200      0.200      0.000 
      38      1.300     -0.200      0.200      0.000 
      39      1.300     -0.200      0.200      0.000 
      40      1.300     -0.200      0.200      0.000 
      41      0.000      0.000      0.302      0.000 
      42      0.000      0.000      0.302      0.000 
      43      0.000      0.000      0.302      0.000 
      44      0.000      0.000      0.300      0.000 
      45      0.000      0.000      0.300      0.000 
      46      0.000      0.000      0.300      0.000 
      47      0.000      0.000      0.300      0.000 
      48      0.000      0.000      0.300      0.000 
      49      0.000      0.000      0.300      0.000 
      50      0.000      0.000      0.300      0.000 
      51      0.000      0.000      0.300      0.000 
      52      0.000      0.000      0.302      0.000 
      53      0.000      0.000      0.300      0.000 
      54      0.000      0.000      0.300      0.000 
      55      0.000      0.000      0.300      0.000 
      56      0.000      0.000      0.300      0.000 
      57      0.000      0.000      0.300      0.000 
      58      0.000      0.000      0.300      0.000 
      59      0.000      0.000      0.300      0.000 
      60      0.000      0.000      0.300      0.000 
      61      0.000      0.000      0.300      0.000 
      62      0.000      0.000      0.300      0.000 
      63      0.000      0.000      0.302      0.000 
      64      0.000      0.000      0.302      0.000 
      65     -0.550      0.000      0.000      0.000 
      66      0.000      0.000      0.198      0.000 
      67      0.000      0.000      0.468      0.000 
      68      0.000      0.000      0.300      0.000 
      69      0.000      0.000      0.198      0.000 
      70      0.000      0.000      0.468      0.000 
      71      0.000      0.000      0.300      0.000 
      72      0.000      0.000      0.300      0.000 
      73      0.000      0.000      0.302      0.000 
      74      0.000      0.000      0.302      0.000 
      75      0.000      5.124      0.000      0.000 
      76      0.000      0.000      0.302      0.000 
      77      0.000      0.000      0.300      0.000 
      78      0.000      0.000      0.300      0.000 
      79      0.000      0.000      0.300      0.000 
      80      0.000      0.000      0.132      0.000 
      81      0.000      0.000      0.300      0.000 
      82      0.000      0.000      0.300      0.000 
      83      0.000      0.000      0.300      0.000 
      84      0.000      0.000      0.000      0.000 
      85      0.000      0.000      0.300      0.000 
      86      0.000      0.000      0.300      0.000 
      87      0.000      0.000      0.300      0.000 
      88      0.000      0.000      0.300      0.000 
      89      0.000      0.000      0.300      0.000 
      90      0.000      0.000      0.300      0.000 
      91      0.000      0.000      0.300      0.000 
      92      0.000      0.000      0.300      0.000 
      93      0.000      0.000      0.300      0.000 
      94      0.000      0.000      0.300      0.000 
      95      0.000      0.000      0.300      0.000 
      96      0.000      0.000      0.300      0.000 
      97      0.000      0.000      0.300      0.000 
      98      0.000      0.000      0.300      0.000 
      99      0.000      0.000      0.300      0.000 
     100      0.000      0.000      0.300      0.000 
     101      0.000      0.000      0.300      0.000 
     102      0.000      0.000      0.300      0.000 
     103      0.000      0.000      0.000      0.000 
     104      0.000      0.000      0.300      0.000 
     105      0.000      0.000      0.300      0.000 
     106      0.000      0.000      0.300      0.000 
     107      0.000      0.000      0.384      0.000 
     108      0.000      0.000      0.300      0.000 
     109      0.000      0.000      0.468      0.000 
     110     -0.550      0.000      0.000      0.000 
     111      0.000      0.000      0.300      0.000 
     112      0.000      0.000      0.300      0.000 
     113      0.000      0.000      0.300      0.000 
     114      0.000      0.000      0.300      0.000 
     115      0.000      0.000      0.300      0.000 
     116      0.000      0.000      0.132      0.000 
     117      0.000      0.000      0.300      0.000 
     118      0.000      0.000      0.300      0.000 
     119      0.000      0.000      0.300      0.000 
     120      0.000      0.000      0.300      0.000 
     121      0.000      0.000      0.300      0.000 
     122      0.000      0.000      0.300      0.000 
     123      0.000      0.000      0.300      0.000 
     124      0.000      0.000      0.302      0.000 
     125      0.000      0.000      0.302      0.000 
     126      0.000      0.000      0.300      0.000 
     127      0.000      0.000      0.300      0.000 
     128      0.000      0.000      0.300      0.000 
     129      0.000      0.000      0.302      0.000 
     130      0.000      0.000      0.300      0.000 
     131      0.000      0.000      0.300      0.000 
     132      0.000      0.000      0.300      0.000 
     133      0.000      0.000      0.300      0.000 
     134      0.000      0.000      0.300      0.000 
     135      0.000      0.000      0.300      0.000 
     136      0.000      0.000      0.302      0.000 
     137      0.000      0.000      0.300      0.000 
     138      0.000      0.000      0.300      0.000 
     139      0.000      0.000      0.300      0.000 
     140      0.000      0.000      0.300      0.000 
     141      0.000      0.000      0.300      0.000 
     142      0.000      0.000      0.300      0.000 
     143      0.000      0.000      0.300      0.000 
     144      0.000      0.000      0.300      0.000 
     145      0.000      0.000      0.300      0.000 
     146      0.000      0.000      0.302      0.000 
     147      0.000      0.000      0.300      0.000 
     148      0.000      0.000      0.300      0.000 
     149      0.000      0.000     -0.100      0.000 
     150      0.000      0.000      0.300      0.000 
     151      0.000      0.000      0.300      0.000 
     152      0.000      0.000      0.300      0.000 
     153      0.000      0.000      0.300      0.000 
     154      0.000      0.000      0.300      0.000 
     155      0.000      0.000      0.300      0.000 
     156      0.000      0.000      0.302      0.000 
     157      0.000      0.000      0.300      0.000 
     158      0.000      0.000      0.300      0.000 
     159      0.000      0.000      0.300      0.000 
     160      0.000      0.000      0.300      0.000 
     161      0.000      0.000      0.300      0.000 
     162      0.000      0.000      0.300      0.000 
     163      0.000      0.000      0.300      0.000 
     164      0.000      0.000      0.300      0.000 
     165      0.000      0.000      0.300      0.000 
     166      0.000      0.000      0.300      0.000 
     167      0.000      0.000      0.000      0.000 
     168      0.000      0.000      0.300      0.000 
     169      0.000      0.000      0.300      0.000 
     170      0.000      0.000      0.300      0.000 
     171      0.000      0.000      0.300      0.000 
     172      0.000      0.000      0.300      0.000 
     173      0.000      0.000      0.300      0.000 
     174      0.000      5.124      0.000      0.000 
     175      0.000      0.000      0.300      0.000 
     176      0.000      0.000      0.300      0.000 
     177      0.000      0.000     -0.100      0.000 
     178      0.000      0.000      0.300      0.000 
     179      0.000      0.000      0.300      0.000 
     180      0.000      0.000      0.300      0.000 
     181      0.000      0.000      0.300      0.000 
     182      0.000      0.000      0.300      0.000 
     183      0.000      0.000      0.468      0.000 
     184      0.000      0.000      0.300      0.000 
     185      0.000      0.000      0.300      0.000 
     186      0.000      0.000      0.300      0.000 
     187      0.000      0.000      0.302      0.000 
     188      0.000      0.000      0.000      0.000 
     189      0.000      0.000      0.302      0.000 
     190      0.000      0.000      0.300      0.000 
     191      0.000      0.000      0.300      0.000 
     192      0.000      0.000      0.302      0.000 
     193      0.000      0.000      0.300      0.000 
     194      0.000      0.000      0.300      0.000 
     195      0.000      0.000      0.300      0.000 
     196      0.000      0.000      0.300      0.000 
     197      0.000      0.000      0.300      0.000 