LAMMPS data file Created by LigParGen - (Written by Leela S. Dodda)

     124 atoms
     123 bonds
     234 angles
     330 dihedrals
      76 impropers
 
     124 atom types
     123 bond types
     234 angle types
     330 dihedral types
      76 improper types
 
  -28.853100    21.146900 xlo xhi
    0.102440    50.102440 ylo yhi
   -1.026560    48.973440 zlo zhi

Masses

       1     12.011  
       2     12.011  
       3     12.011  
       4     12.011  
       5     12.011  
       6     12.011  
       7     12.011  
       8     12.011  
       9     12.011  
      10     12.011  
      11     12.011  
      12     12.011  
      13     12.011  
      14     12.011  
      15     12.011  
      16     12.011  
      17     15.999  
      18     15.999  
      19     12.011  
      20     12.011  
      21     12.011  
      22     15.999  
      23     30.974  
      24     15.999  
      25     15.999  
      26     15.999  
      27     12.011  
      28     12.011  
      29     14.007  
      30     12.011  
      31     15.999  
      32     15.999  
      33     15.999  
      34     12.011  
      35     15.999  
      36     12.011  
      37     12.011  
      38     12.011  
      39     12.011  
      40     12.011  
      41     12.011  
      42     12.011  
      43     12.011  
      44     12.011  
      45     12.011  
      46     12.011  
      47     12.011  
      48     12.011  
      49     12.011  
      50     12.011  
      51      1.008  
      52      1.008  
      53      1.008  
      54      1.008  
      55      1.008  
      56      1.008  
      57      1.008  
      58      1.008  
      59      1.008  
      60      1.008  
      61      1.008  
      62      1.008  
      63      1.008  
      64      1.008  
      65      1.008  
      66      1.008  
      67      1.008  
      68      1.008  
      69      1.008  
      70      1.008  
      71      1.008  
      72      1.008  
      73      1.008  
      74      1.008  
      75      1.008  
      76      1.008  
      77      1.008  
      78      1.008  
      79      1.008  
      80      1.008  
      81      1.008  
      82      1.008  
      83      1.008  
      84      1.008  
      85      1.008  
      86      1.008  
      87      1.008  
      88      1.008  
      89      1.008  
      90      1.008  
      91      1.008  
      92      1.008  
      93      1.008  
      94      1.008  
      95      1.008  
      96      1.008  
      97      1.008  
      98      1.008  
      99      1.008  
     100      1.008  
     101      1.008  
     102      1.008  
     103      1.008  
     104      1.008  
     105      1.008  
     106      1.008  
     107      1.008  
     108      1.008  
     109      1.008  
     110      1.008  
     111      1.008  
     112      1.008  
     113      1.008  
     114      1.008  
     115      1.008  
     116      1.008  
     117      1.008  
     118      1.008  
     119      1.008  
     120      1.008  
     121      1.008  
     122      1.008  
     123      1.008  
     124      1.008  

Pair Coeffs 

       1      0.066  3.5000000 
       2      0.066  3.5000000 
       3      0.066  3.5000000 
       4      0.066  3.5000000 
       5      0.066  3.5000000 
       6      0.066  3.5000000 
       7      0.066  3.5000000 
       8      0.066  3.5000000 
       9      0.066  3.5000000 
      10      0.066  3.5000000 
      11      0.066  3.5000000 
      12      0.066  3.5000000 
      13      0.066  3.5000000 
      14      0.066  3.5000000 
      15      0.066  3.5000000 
      16      0.070  3.5500000 
      17      0.210  2.9600000 
      18      0.140  2.9000000 
      19      0.066  3.5000000 
      20      0.066  3.5000000 
      21      0.066  3.5000000 
      22      0.140  2.9000000 
      23      0.200  3.7400000 
      24      0.170  3.1200000 
      25      0.210  2.9600000 
      26      0.140  2.9000000 
      27      0.066  3.5000000 
      28      0.066  3.5000000 
      29      0.170  3.3000000 
      30      0.070  3.5500000 
      31      0.170  3.1200000 
      32      0.210  2.9600000 
      33      0.140  2.9000000 
      34      0.070  3.5500000 
      35      0.210  2.9600000 
      36      0.066  3.5000000 
      37      0.066  3.5000000 
      38      0.066  3.5000000 
      39      0.066  3.5000000 
      40      0.066  3.5000000 
      41      0.066  3.5000000 
      42      0.066  3.5000000 
      43      0.066  3.5000000 
      44      0.066  3.5000000 
      45      0.066  3.5000000 
      46      0.066  3.5000000 
      47      0.066  3.5000000 
      48      0.066  3.5000000 
      49      0.066  3.5000000 
      50      0.066  3.5000000 
      51      0.030  2.5000000 
      52      0.030  2.5000000 
      53      0.030  2.5000000 
      54      0.030  2.5000000 
      55      0.030  2.5000000 
      56      0.030  2.5000000 
      57      0.030  2.5000000 
      58      0.030  2.5000000 
      59      0.030  2.5000000 
      60      0.030  2.5000000 
      61      0.030  2.5000000 
      62      0.030  2.5000000 
      63      0.030  2.5000000 
      64      0.030  2.5000000 
      65      0.030  2.5000000 
      66      0.030  2.5000000 
      67      0.030  2.5000000 
      68      0.030  2.5000000 
      69      0.030  2.5000000 
      70      0.030  2.5000000 
      71      0.030  2.5000000 
      72      0.030  2.5000000 
      73      0.030  2.5000000 
      74      0.030  2.5000000 
      75      0.030  2.5000000 
      76      0.030  2.5000000 
      77      0.030  2.5000000 
      78      0.030  2.5000000 
      79      0.030  2.5000000 
      80      0.030  2.5000000 
      81      0.030  2.5000000 
      82      0.030  2.5000000 
      83      0.030  2.5000000 
      84      0.030  2.5000000 
      85      0.030  2.5000000 
      86      0.030  2.5000000 
      87      0.000  0.0000000 
      88      0.030  2.5000000 
      89      0.030  2.5000000 
      90      0.030  2.5000000 
      91      0.000  0.0000000 
      92      0.000  0.0000000 
      93      0.000  0.0000000 
      94      0.030  2.5000000 
      95      0.030  2.5000000 
      96      0.030  2.5000000 
      97      0.030  2.5000000 
      98      0.030  2.5000000 
      99      0.030  2.5000000 
     100      0.030  2.5000000 
     101      0.030  2.5000000 
     102      0.030  2.5000000 
     103      0.030  2.5000000 
     104      0.030  2.5000000 
     105      0.030  2.5000000 
     106      0.030  2.5000000 
     107      0.030  2.5000000 
     108      0.030  2.5000000 
     109      0.030  2.5000000 
     110      0.030  2.5000000 
     111      0.030  2.5000000 
     112      0.030  2.5000000 
     113      0.030  2.5000000 
     114      0.030  2.5000000 
     115      0.030  2.5000000 
     116      0.030  2.5000000 
     117      0.030  2.5000000 
     118      0.030  2.5000000 
     119      0.030  2.5000000 
     120      0.030  2.5000000 
     121      0.030  2.5000000 
     122      0.030  2.5000000 
     123      0.030  2.5000000 
     124      0.030  2.5000000 

Bond Coeffs 

       1   268.0000     1.5290 
       2   268.0000     1.5290 
       3   268.0000     1.5290 
       4   268.0000     1.5290 
       5   268.0000     1.5290 
       6   268.0000     1.5290 
       7   268.0000     1.5290 
       8   268.0000     1.5290 
       9   268.0000     1.5290 
      10   268.0000     1.5290 
      11   268.0000     1.5290 
      12   268.0000     1.5290 
      13   268.0000     1.5290 
      14   268.0000     1.5290 
      15   317.0000     1.5220 
      16   570.0000     1.2290 
      17   214.0000     1.3270 
      18   320.0000     1.4100 
      19   268.0000     1.5290 
      20   268.0000     1.5290 
      21   320.0000     1.4100 
      22   230.0000     1.6100 
      23   230.0000     1.6100 
      24   525.0000     1.4800 
      25   230.0000     1.6100 
      26   320.0000     1.4100 
      27   268.0000     1.5290 
      28   382.0000     1.4480 
      29   317.0000     1.5220 
      30   450.0000     1.3640 
      31   570.0000     1.2290 
      32   320.0000     1.4100 
      33   214.0000     1.3270 
      34   570.0000     1.2290 
      35   317.0000     1.5220 
      36   268.0000     1.5290 
      37   268.0000     1.5290 
      38   268.0000     1.5290 
      39   268.0000     1.5290 
      40   268.0000     1.5290 
      41   268.0000     1.5290 
      42   268.0000     1.5290 
      43   268.0000     1.5290 
      44   268.0000     1.5290 
      45   268.0000     1.5290 
      46   268.0000     1.5290 
      47   268.0000     1.5290 
      48   268.0000     1.5290 
      49   268.0000     1.5290 
      50   340.0000     1.0900 
      51   340.0000     1.0900 
      52   340.0000     1.0900 
      53   340.0000     1.0900 
      54   340.0000     1.0900 
      55   340.0000     1.0900 
      56   340.0000     1.0900 
      57   340.0000     1.0900 
      58   340.0000     1.0900 
      59   340.0000     1.0900 
      60   340.0000     1.0900 
      61   340.0000     1.0900 
      62   340.0000     1.0900 
      63   340.0000     1.0900 
      64   340.0000     1.0900 
      65   340.0000     1.0900 
      66   340.0000     1.0900 
      67   340.0000     1.0900 
      68   340.0000     1.0900 
      69   340.0000     1.0900 
      70   340.0000     1.0900 
      71   340.0000     1.0900 
      72   340.0000     1.0900 
      73   340.0000     1.0900 
      74   340.0000     1.0900 
      75   340.0000     1.0900 
      76   340.0000     1.0900 
      77   340.0000     1.0900 
      78   340.0000     1.0900 
      79   340.0000     1.0900 
      80   340.0000     1.0900 
      81   340.0000     1.0900 
      82   340.0000     1.0900 
      83   340.0000     1.0900 
      84   340.0000     1.0900 
      85   340.0000     1.0900 
      86   553.0000     0.9450 
      87   340.0000     1.0900 
      88   340.0000     1.0900 
      89   340.0000     1.0900 
      90   434.0000     1.0100 
      91   434.0000     1.0100 
      92   553.0000     0.9450 
      93   340.0000     1.0900 
      94   340.0000     1.0900 
      95   340.0000     1.0900 
      96   340.0000     1.0900 
      97   340.0000     1.0900 
      98   340.0000     1.0900 
      99   340.0000     1.0900 
     100   340.0000     1.0900 
     101   340.0000     1.0900 
     102   340.0000     1.0900 
     103   340.0000     1.0900 
     104   340.0000     1.0900 
     105   340.0000     1.0900 
     106   340.0000     1.0900 
     107   340.0000     1.0900 
     108   340.0000     1.0900 
     109   340.0000     1.0900 
     110   340.0000     1.0900 
     111   340.0000     1.0900 
     112   340.0000     1.0900 
     113   340.0000     1.0900 
     114   340.0000     1.0900 
     115   340.0000     1.0900 
     116   340.0000     1.0900 
     117   340.0000     1.0900 
     118   340.0000     1.0900 
     119   340.0000     1.0900 
     120   340.0000     1.0900 
     121   340.0000     1.0900 
     122   340.0000     1.0900 
     123   340.0000     1.0900 

Angle Coeffs 

       1     58.350    112.700
       2     58.350    112.700
       3     58.350    112.700
       4     58.350    112.700
       5     58.350    112.700
       6     58.350    112.700
       7     58.350    112.700
       8     58.350    112.700
       9     58.350    112.700
      10     58.350    112.700
      11     58.350    112.700
      12     58.350    112.700
      13     58.350    112.700
      14     63.000    111.100
      15     80.000    120.400
      16     81.000    111.400
      17     83.000    116.900
      18     50.000    109.500
      19     58.350    112.700
      20     50.000    109.500
      21    100.000    120.500
      22     45.000    102.600
      23    100.000    108.230
      24     45.000    102.600
      25    100.000    120.500
      26     50.000    109.500
      27     56.200    109.470
      28     63.000    111.100
      29     70.000    108.000
      30     80.000    120.400
      31     50.000    109.500
      32     83.000    116.900
      33     83.000    123.400
      34     81.000    111.400
      35     63.000    111.100
      36     58.350    112.700
      37     58.350    112.700
      38     58.350    112.700
      39     58.350    112.700
      40     58.350    112.700
      41     58.350    112.700
      42     58.350    112.700
      43     58.350    112.700
      44     58.350    112.700
      45     58.350    112.700
      46     58.350    112.700
      47     58.350    112.700
      48     58.350    112.700
      49     37.500    110.700
      50     37.500    110.700
      51     37.500    110.700
      52     37.500    110.700
      53     37.500    110.700
      54     37.500    110.700
      55     37.500    110.700
      56     37.500    110.700
      57     37.500    110.700
      58     37.500    110.700
      59     37.500    110.700
      60     37.500    110.700
      61     37.500    110.700
      62     37.500    110.700
      63     37.500    110.700
      64     37.500    110.700
      65     37.500    110.700
      66     37.500    110.700
      67     37.500    110.700
      68     37.500    110.700
      69     37.500    110.700
      70     37.500    110.700
      71     37.500    110.700
      72     37.500    110.700
      73     37.500    110.700
      74     37.500    110.700
      75     37.500    110.700
      76     37.500    110.700
      77     37.500    110.700
      78     37.500    110.700
      79     37.500    110.700
      80     35.000    109.500
      81     35.000    109.500
      82     37.500    110.700
      83     37.500    110.700
      84     37.500    110.700
      85     55.000    108.500
      86     35.000    109.500
      87     35.000    109.500
      88     37.500    110.700
      89     35.000    109.500
      90     35.000    109.500
      91     35.000    113.000
      92     35.000    109.500
      93     35.000    109.500
      94     37.500    110.700
      95     37.500    110.700
      96     37.500    110.700
      97     37.500    110.700
      98     37.500    110.700
      99     37.500    110.700
     100     37.500    110.700
     101     37.500    110.700
     102     37.500    110.700
     103     37.500    110.700
     104     37.500    110.700
     105     37.500    110.700
     106     37.500    110.700
     107     37.500    110.700
     108     37.500    110.700
     109     37.500    110.700
     110     37.500    110.700
     111     37.500    110.700
     112     37.500    110.700
     113     37.500    110.700
     114     37.500    110.700
     115     37.500    110.700
     116     37.500    110.700
     117     37.500    110.700
     118     37.500    110.700
     119     37.500    110.700
     120     37.500    110.700
     121     37.500    110.700
     122     37.500    110.700
     123     33.000    107.800
     124     33.000    107.800
     125     80.000    111.200
     126     37.500    110.700
     127     37.500    110.700
     128     33.000    107.800
     129     35.000    109.500
     130     37.500    110.700
     131     33.000    107.800
     132     37.500    110.700
     133     33.000    107.800
     134     37.500    110.700
     135     37.500    110.700
     136     37.500    110.700
     137     37.500    110.700
     138     37.500    110.700
     139     33.000    107.800
     140     37.500    110.700
     141     37.500    110.700
     142     37.500    110.700
     143     33.000    107.800
     144     35.000    109.500
     145     37.500    110.700
     146     33.000    107.800
     147    100.000    108.230
     148     43.600    106.400
     149     33.000    107.800
     150     33.000    107.800
     151     37.500    110.700
     152     35.000    109.500
     153     33.000    107.800
     154     37.500    110.700
     155     33.000    107.800
     156     37.500    110.700
     157     37.500    110.700
     158     37.500    110.700
     159     33.000    107.800
     160     33.000    107.800
     161     37.500    110.700
     162     35.000    109.500
     163     37.500    110.700
     164     33.000    107.800
     165     37.500    110.700
     166     37.500    110.700
     167     37.500    110.700
     168     37.500    110.700
     169     33.000    107.800
     170     37.500    110.700
     171     80.000    120.400
     172     37.500    110.700
     173     37.500    110.700
     174     37.500    110.700
     175     37.500    110.700
     176    100.000    108.230
     177     33.000    107.800
     178     37.500    110.700
     179     37.500    110.700
     180     37.500    110.700
     181     37.500    110.700
     182     33.000    107.800
     183     33.000    107.800
     184     33.000    107.800
     185     33.000    107.800
     186     80.000    121.000
     187     37.500    110.700
     188     37.500    110.700
     189     83.000    123.400
     190     37.500    110.700
     191     37.500    110.700
     192     37.500    110.700
     193     37.500    110.700
     194     37.500    110.700
     195     35.000    109.500
     196     37.500    110.700
     197     33.000    107.800
     198     33.000    107.800
     199     33.000    107.800
     200     33.000    107.800
     201     35.000    109.500
     202     37.500    110.700
     203     33.000    107.800
     204     33.000    107.800
     205     37.500    110.700
     206     37.500    110.700
     207     33.000    107.800
     208     37.500    110.700
     209     37.500    110.700
     210     37.500    110.700
     211     37.500    110.700
     212     37.500    110.700
     213     33.000    107.800
     214     37.500    110.700
     215     37.500    110.700
     216     33.000    107.800
     217     33.000    107.800
     218     33.000    107.800
     219     37.500    110.700
     220     33.000    107.800
     221     33.000    107.800
     222     45.000    102.600
     223     37.500    110.700
     224     37.500    110.700
     225     50.000    109.500
     226     37.500    110.700
     227     37.500    110.700
     228     35.000    109.500
     229     37.500    110.700
     230     33.000    107.800
     231     37.500    110.700
     232     33.000    107.800
     233     33.000    107.800
     234     37.500    110.700

Dihedral Coeffs  

       1      1.300     -0.200      0.200      0.000 
       2      1.300     -0.200      0.200      0.000 
       3      1.300     -0.200      0.200      0.000 
       4      1.300     -0.200      0.200      0.000 
       5      1.300     -0.200      0.200      0.000 
       6      1.300     -0.200      0.200      0.000 
       7      1.300     -0.200      0.200      0.000 
       8      1.300     -0.200      0.200      0.000 
       9      1.300     -0.200      0.200      0.000 
      10      1.300     -0.200      0.200      0.000 
      11      1.300     -0.200      0.200      0.000 
      12      1.300     -0.200      0.200      0.000 
      13     -2.060     -0.313      0.315      0.000 
      14      0.000      0.000      0.000      0.000 
      15      4.669      5.124      0.000      0.000 
      16     -1.220     -0.126      0.422      0.000 
      17      1.711     -0.500      0.663      0.000 
      18      1.711     -0.500      0.663      0.000 
      19     -1.420     -0.620      0.100      0.000 
      20      0.000      0.000      0.000      0.000 
      21      0.000      0.000      0.000      0.000 
      22     -1.420     -0.620      0.100      0.000 
      23      8.000      0.000      0.000      0.000 
      24      1.000      0.546      0.450      0.000 
      25     -1.220     -0.126      0.422      0.000 
      26      0.000      5.124      0.000      0.000 
      27      0.000      0.000     -0.553      0.000 
      28     -2.060     -0.313      0.315      0.000 
      29      1.300     -0.200      0.200      0.000 
      30      1.300     -0.200      0.200      0.000 
      31      1.300     -0.200      0.200      0.000 
      32      1.300     -0.200      0.200      0.000 
      33      1.300     -0.200      0.200      0.000 
      34      1.300     -0.200      0.200      0.000 
      35      1.300     -0.200      0.200      0.000 
      36      1.300     -0.200      0.200      0.000 
      37      1.300     -0.200      0.200      0.000 
      38      1.300     -0.200      0.200      0.000 
      39      1.300     -0.200      0.200      0.000 
      40      1.300     -0.200      0.200      0.000 
      41      0.000      0.000      0.300      0.000 
      42      0.000      0.000      0.000      0.000 
      43     -0.190     -0.417      0.418      0.000 
      44      1.500      5.500      0.000      0.000 
      45      0.000      0.000      0.300      0.000 
      46      0.000      0.000      0.300      0.000 
      47      0.000      0.000      0.300      0.000 
      48      0.000      0.000     -0.100      0.000 
      49      0.000      0.000      0.000      0.000 
      50      0.000      0.000      0.300      0.000 
      51      0.000      0.000      0.300      0.000 
      52      0.000      0.000      0.300      0.000 
      53      4.669      5.124      0.000      0.000 
      54      0.000      0.000      0.300      0.000 
      55      0.000      0.000      0.300      0.000 
      56     -0.190     -0.417      0.418      0.000 
      57      0.000      0.000      0.300      0.000 
      58      0.000      0.000      0.300      0.000 
      59      0.000      0.000      0.300      0.000 
      60      0.000      0.000      0.300      0.000 
      61      0.000      0.000      0.300      0.000 
      62      0.000      0.000      0.300      0.000 
      63      0.000      0.000      0.300      0.000 
      64      0.000      0.000      0.300      0.000 
      65      0.000      0.000      0.300      0.000 
      66      0.000      0.000      0.300      0.000 
      67      0.000      0.000      0.300      0.000 
      68      0.000      0.000      0.300      0.000 
      69      0.000      0.000      0.300      0.000 
      70      0.000      0.000      0.300      0.000 
      71      0.000      0.000      0.198      0.000 
      72      0.000      0.000      0.300      0.000 
      73      0.000      0.000      0.300      0.000 
      74      0.000      0.000      0.300      0.000 
      75      0.000      0.000      0.300      0.000 
      76      0.000      0.000      0.300      0.000 
      77      0.000      0.000      0.000      0.000 
      78      0.000      0.000      0.300      0.000 
      79      0.000      0.000      0.300      0.000 
      80      0.000      0.000      0.300      0.000 
      81     -0.550      0.000      0.000      0.000 
      82      0.000      0.000      0.300      0.000 
      83      0.000      0.000      0.300      0.000 
      84      5.260      0.820      0.000      0.000 
      85      0.000      0.000      0.300      0.000 
      86      0.000      0.000      0.300      0.000 
      87      0.000      0.000      0.300      0.000 
      88      0.000      0.000      0.300      0.000 
      89      0.000      0.000      0.300      0.000 
      90      0.000      0.000      0.300      0.000 
      91      0.000      0.000      0.300      0.000 
      92      0.000      0.000      0.300      0.000 
      93      0.000      0.000      0.300      0.000 
      94      0.000      0.000      0.300      0.000 
      95      0.000      0.000      0.300      0.000 
      96      0.000      0.000      0.300      0.000 
      97      0.000      0.000      0.300      0.000 
      98     -6.180      0.000      0.000      0.000 
      99      0.000      0.000      0.300      0.000 
     100      0.000      0.000      0.300      0.000 
     101      0.000      0.000      0.300      0.000 
     102      0.000      0.000      0.468      0.000 
     103      0.000      0.000      0.300      0.000 
     104      0.000      0.000      0.300      0.000 
     105      0.000      0.000      0.300      0.000 
     106      0.000      0.000      0.300      0.000 
     107      0.000      0.000      0.300      0.000 
     108      0.000      0.000      0.300      0.000 
     109      0.000      0.000      0.300      0.000 
     110      0.000      0.000      0.300      0.000 
     111      0.000      0.000      0.300      0.000 
     112      0.000      5.500      0.000      0.000 
     113      0.000      0.000      0.000      0.000 
     114      0.000      0.000      0.300      0.000 
     115      0.000      0.000     -0.100      0.000 
     116      0.000      0.000      0.300      0.000 
     117      0.000      0.000      0.300      0.000 
     118      0.000      0.000      0.400      0.000 
     119      0.000      0.000      0.300      0.000 
     120      0.000      0.000      0.300      0.000 
     121      0.000      0.000      0.198      0.000 
     122      0.000      0.000      0.300      0.000 
     123     -0.550      0.000      0.000      0.000 
     124      0.000      0.000      0.300      0.000 
     125      0.000      0.000      0.300      0.000 
     126      0.000      0.000      0.300      0.000 
     127      0.000      0.000      0.000      0.000 
     128      0.000      0.000      0.300      0.000 
     129      0.000      0.000      0.300      0.000 
     130      0.000      0.000      0.300      0.000 
     131      0.000      0.000      0.300      0.000 
     132      0.000      0.000      0.300      0.000 
     133      0.000      0.000      0.300      0.000 
     134      0.000      0.000     -0.100      0.000 
     135      0.000      0.000      0.300      0.000 
     136      0.000      0.000      0.300      0.000 
     137      0.000      0.000      0.000      0.000 
     138      0.000      0.000      0.000      0.000 
     139      0.000      0.000      0.300      0.000 
     140      0.000      0.000      0.300      0.000 
     141      0.000      0.000      0.468      0.000 
     142      0.000      0.000      0.300      0.000 
     143      0.000      0.000      0.300      0.000 
     144      0.000      0.000      0.300      0.000 
     145      0.000      0.000      0.300      0.000 
     146      0.000      0.000      0.300      0.000 
     147      0.000      0.000      0.300      0.000 
     148      0.000      0.000      0.300      0.000 
     149      0.000      0.000      0.300      0.000 
     150      0.000      0.000      0.300      0.000 
     151      0.000      0.000      0.300      0.000 
     152      0.000      0.000      0.300      0.000 
     153      0.000      0.000      0.300      0.000 
     154     -1.220     -0.126      0.422      0.000 
     155      0.000      0.000      0.300      0.000 
     156      0.000      0.000      0.300      0.000 
     157      0.000      0.000      0.300      0.000 
     158      0.000      0.000      0.300      0.000 
     159      0.000      0.000      0.300      0.000 
     160      0.000      0.000      0.300      0.000 
     161      0.000      0.000      0.000      0.000 
     162      0.000      0.000      0.300      0.000 
     163      0.000      0.000      0.300      0.000 
     164      0.000      0.000      0.300      0.000 
     165      0.000      0.000      0.300      0.000 
     166      0.000      0.000      0.300      0.000 
     167      0.000      0.000      0.300      0.000 
     168      0.000      0.000      0.300      0.000 
     169      0.000      0.000      0.300      0.000 
     170      0.000      0.000      0.300      0.000 
     171      0.000      0.000      0.300      0.000 
     172      0.000      0.000      0.300      0.000 
     173      0.000      0.000      0.300      0.000 
     174      0.000      0.000      0.300      0.000 
     175      0.000      0.000      0.300      0.000 
     176      0.000      0.000      0.300      0.000 
     177      0.000      0.000      0.000      0.000 
     178      0.000      0.000      0.300      0.000 
     179      0.000      0.000      0.300      0.000 
     180      0.000      0.000      0.300      0.000 
     181      0.000      0.000      0.300      0.000 
     182      0.000      0.000      0.300      0.000 
     183      0.000      0.000      0.468      0.000 
     184      0.000      0.000      0.300      0.000 
     185      0.000      0.000      0.300      0.000 
     186      0.000      0.000      0.400      0.000 
     187      0.000      0.000      0.300      0.000 
     188      0.000      0.000      0.300      0.000 
     189      0.000      0.000      0.300      0.000 
     190      0.000      0.000      0.300      0.000 
     191      0.000      0.000      0.300      0.000 
     192      0.000      0.000      0.300      0.000 
     193      0.000      0.000      0.132      0.000 
     194      0.000      0.000     -0.100      0.000 
     195      0.000      0.000      0.300      0.000 
     196      0.000      0.000      0.300      0.000 
     197      0.000      0.000      0.300      0.000 
     198      0.000      0.000      0.300      0.000 
     199      0.000      0.000      0.300      0.000 
     200      0.000      0.000      0.300      0.000 
     201      0.000      0.000      0.300      0.000 
     202      0.000      0.000      0.300      0.000 
     203      0.000      0.000      0.000      0.000 
     204      0.000      0.000      0.300      0.000 
     205      0.000      0.000      0.300      0.000 
     206      0.000      0.000      0.300      0.000 
     207      0.000      0.000      0.300      0.000 
     208      0.000      0.000      0.300      0.000 
     209      0.000      0.000      0.300      0.000 
     210      0.000      0.000      0.300      0.000 
     211      0.000      0.000      0.300      0.000 
     212      0.000      0.000      0.300      0.000 
     213      0.000      5.124      0.000      0.000 
     214      0.000      0.000      0.300      0.000 
     215      0.000      0.000      0.000      0.000 
     216      0.000      0.000      0.300      0.000 