LAMMPS data file Created by LigParGen - (Written by Leela S. Dodda)

      20 atoms
      20 bonds
      30 angles
      40 dihedrals
      10 impropers
 
      20 atom types
      20 bond types
      30 angle types
      40 dihedral types
      10 improper types
 
   -5.560830    44.439170 xlo xhi
   -0.223970    49.776030 ylo yhi
   -0.949190    49.050810 zlo zhi

Masses

       1     12.011  
       2     12.011  
       3     12.011  
       4     12.011  
       5     12.011  
       6     12.011  
       7     12.011  
       8     12.011  
       9     12.011  
      10     12.011  
      11      1.008  
      12      1.008  
      13      1.008  
      14      1.008  
      15      1.008  
      16      1.008  
      17      1.008  
      18      1.008  
      19      1.008  
      20      1.008  

Pair Coeffs 

       1      0.076  3.5500000 
       2      0.076  3.5500000 
       3      0.070  3.5500000 
       4      0.070  3.5500000 
       5      0.070  3.5500000 
       6      0.070  3.5500000 
       7      0.070  3.5500000 
       8      0.070  3.5500000 
       9      0.076  3.5500000 
      10      0.076  3.5500000 
      11      0.030  2.5000000 
      12      0.030  2.5000000 
      13      0.030  2.5000000 
      14      0.030  2.4200000 
      15      0.030  2.4200000 
      16      0.030  2.4200000 
      17      0.030  2.4200000 
      18      0.030  2.5000000 
      19      0.030  2.5000000 
      20      0.030  2.5000000 

Bond Coeffs 

       1   549.0000     1.3400 
       2   427.0000     1.4330 
       3   469.0000     1.4000 
       4   469.0000     1.4000 
       5   469.0000     1.4000 
       6   469.0000     1.4000 
       7   469.0000     1.4000 
       8   427.0000     1.4330 
       9   549.0000     1.3400 
      10   340.0000     1.0800 
      11   340.0000     1.0800 
      12   340.0000     1.0800 
      13   367.0000     1.0800 
      14   367.0000     1.0800 
      15   367.0000     1.0800 
      16   367.0000     1.0800 
      17   340.0000     1.0800 
      18   340.0000     1.0800 
      19   340.0000     1.0800 
      20   469.0000     1.4000 

Angle Coeffs 

       1     85.000    117.000
       2     70.000    124.000
       3     63.000    120.000
       4     63.000    120.000
       5     63.000    120.000
       6     70.000    124.000
       7     70.000    124.000
       8     85.000    117.000
       9     35.000    120.000
      10     35.000    120.000
      11     35.000    120.000
      12     35.000    120.000
      13     35.000    120.000
      14     35.000    120.000
      15     35.000    120.000
      16     35.000    123.300
      17     35.000    120.000
      18     35.000    120.000
      19     35.000    120.000
      20     35.000    120.000
      21     63.000    120.000
      22     63.000    120.000
      23     35.000    120.000
      24     35.000    117.000
      25     35.000    117.000
      26     35.000    123.300
      27     70.000    124.000
      28     63.000    120.000
      29     35.000    120.000
      30     35.000    120.000

Dihedral Coeffs  

       1      1.241      3.353     -0.286      0.000 
       2      0.000      7.250      0.000      0.000 
       3      0.000      7.250      0.000      0.000 
       4      0.000      7.250      0.000      0.000 
       5      1.241      3.353     -0.286      0.000 
       6      0.000     14.000      0.000      0.000 
       7      0.000     14.000      0.000      0.000 
       8      0.000     14.000      0.000      0.000 
       9      0.000      7.250      0.000      0.000 
      10      0.000      7.250      0.000      0.000 
      11      0.000     14.000      0.000      0.000 
      12      0.000      7.250      0.000      0.000 
      13      0.000      7.250      0.000      0.000 
      14      0.000     14.000      0.000      0.000 
      15      0.000      7.250      0.000      0.000 
      16      0.000      7.250      0.000      0.000 
      17      0.000      7.250      0.000      0.000 
      18      0.000     14.000      0.000      0.000 
      19      0.000      7.250      0.000      0.000 
      20      0.000     14.000      0.000      0.000 
      21      0.000      7.250      0.000      0.000 
      22      0.000      7.250      0.000      0.000 
      23      0.000      7.250      0.000      0.000 
      24      0.000      7.250      0.000      0.000 
      25      0.000      7.250      0.000      0.000 
      26      0.000     14.000      0.000      0.000 
      27      0.000      7.250      0.000      0.000 
      28      0.000      7.250      0.000      0.000 
      29      0.000      7.250      0.000      0.000 
      30      0.000      0.000     -0.372      0.000 
      31      1.241      3.353     -0.286      0.000 
      32      0.000      7.250      0.000      0.000 
      33      0.000      0.000     -0.372      0.000 
      34      1.241      3.353     -0.286      0.000 
      35      0.000      7.250      0.000      0.000 
      36      0.000      0.000     -0.372      0.000 
      37      0.000      0.000     -0.372      0.000 
      38      0.000      7.250      0.000      0.000 
      39      0.000      7.250      0.000      0.000 
      40      0.000      7.250      0.000      0.000 

Improper Coeffs 

       1      2.500      -1       2 
       2      2.500      -1       2 
       3      2.500      -1       2 
       4      2.500      -1       2 
       5      2.500      -1       2 
       6      2.500      -1       2 
       7      2.500      -1       2 
       8      2.500      -1       2 
       9      2.500      -1       2 
      10      2.500      -1       2 

Atoms 

     1      1      1 -0.23640000     0.991565      1.203294     -0.081213
     2      1      2 -0.14540000    -0.285262      0.826893      0.045071
     3      1      3 -0.04850000    -1.121643      0.903239      1.248736
     4      1      4 -0.12650000    -0.665737      1.411932      2.473625
     5      1      5 -0.12890000    -1.501198      1.460525      3.578741
     6      1      6 -0.04770000    -2.828918      1.006031      3.518474
     7      1      7 -0.12460000    -3.284653      0.496842      2.293744
     8      1      8 -0.12810000    -2.449158      0.448197      1.188632
     9      1      9 -0.14510000    -3.665582      1.083135      4.721890
    10      1     10 -0.23570000    -4.945428      0.716150      4.845343
    11      1     11 0.13050000      1.510028      1.098676     -1.026641
    12      1     12 0.13050000      1.563036      1.623837      0.738889
    13      1     13 0.14250000     -0.784998      0.412904     -0.828239
    14      1     14 0.14080000      0.351249      1.774300      2.565930
    15      1     15 0.13980000     -1.123548      1.858887      4.515019
    16      1     16 0.14000000     -4.301314      0.133484      2.201745
    17      1     17 0.14070000     -2.826562      0.049261      0.252498
    18      1     18 0.14110000     -3.163486      1.489700      5.597331
    19      1     19 0.13050000     -5.519513      0.304417      4.022599
    20      1     20 0.13050000     -5.463879      0.820294      5.790826

Bonds 

     1      1      2      1
     2      2      3      2
     3      3      4      3
     4      4      5      4
     5      5      6      5
     6      6      7      6
     7      7      8      3
     8      8      9      6
     9      9     10      9
    10     10     11      1
    11     11     12      1
    12     12     13      2
    13     13     14      4
    14     14     15      5
    15     15     16      7
    16     16     17      8
    17     17     18      9
    18     18     19     10
    19     19     20     10
    20     20      8      7

Angles 

     1      1      1      2      3
     2      2      2      3      4
     3      3      3      4      5
     4      4      4      5      6
     5      5      5      6      7
     6      6      2      3      8
     7      7      5      6      9
     8      8      6      9     10
     9      9      2      1     11
    10     10      2      1     12
    11     11      1      2     13
    12     12      3      4     14
    13     13      4      5     15
    14     14      6      7     16
    15     15      3      8     17
    16     16      6      9     18
    17     17      9     10     19
    18     18      9     10     20
    19     19      5      4     14
    20     20      7      8     17
    21     21      6      7      8
    22     22      3      8      7
    23     23      6      5     15
    24     24     11      1     12
    25     25     19     10     20
    26     26      3      2     13
    27     27      7      6      9
    28     28      4      3      8
    29     29     10      9     18
    30     30      8      7     16

Dihedrals

     1      1      4      3      2      1 
     2      2      5      4      3      2 
     3      3      6      5      4      3 
     4      4      7      6      5      4 
     5      5     10      9      6      5 
     6      6     11      1      2      3 
     7      7     19     10      9      6 
     8      8     19     10      9     18 
     9      9      9      6      7      8 
    10     10     14      4      3      2 
    11     11     20     10      9     18 
    12     12     14      4      3      8 
    13     13     15      5      6      9 
    14     14     20     10      9      6 
    15     15     16      7      8      3 
    16     16     17      8      3      4 
    17     17     17      8      7     16 
    18     18     13      2      1     12 
    19     19     17      8      3      2 
    20     20     12      1      2      3 
    21     21     15      5      4     14 
    22     22      7      8      3      4 
    23     23      6      7      8      3 
    24     24     17      8      7      6 
    25     25      9      6      5      4 
    26     26     13      2      1     11 
    27     27      7      8      3      2 
    28     28      8      3      4      5 
    29     29     15      5      6      7 
    30     30     18      9      6      5 
    31     31     10      9      6      7 
    32     32     15      5      4      3 
    33     33     18      9      6      7 
    34     34      8      3      2      1 
    35     35     16      7      6      5 
    36     36     13      2      3      8 
    37     37     13      2      3      4 
    38     38      8      7      6      5 
    39     39     16      7      6      9 
    40     40     14      4      5      6 

Impropers

     1      1      3      2      4      8 
     2      2      6      9      5      7 
     3      3      1      2     11     12 
     4      4      2      1      3     13 
     5      5      4      3      5     14 
     6      6      5      4      6     15 
     7      7      7      8      6     16 
     8      8      8     17      3      7 
     9      9      9     18      6     10 
    10     10     10      9     19     20 

