LAMMPS data file Created by LigParGen - (Written by Leela S. Dodda)

      28 atoms
      27 bonds
      44 angles
      47 dihedrals
      14 impropers
 
      28 atom types
      27 bond types
      44 angle types
      47 dihedral types
      14 improper types
 
   -7.860940    42.139060 xlo xhi
    0.110330    50.110330 ylo yhi
   -4.143260    45.856740 zlo zhi

Masses

       1     12.011  
       2     12.011  
       3     12.011  
       4     12.011  
       5     15.999  
       6     15.999  
       7     12.011  
       8     12.011  
       9     15.999  
      10     12.011  
      11     15.999  
      12     12.011  
      13     12.011  
      14     12.011  
      15      1.008  
      16      1.008  
      17      1.008  
      18      1.008  
      19      1.008  
      20      1.008  
      21      1.008  
      22      1.008  
      23      1.008  
      24      1.008  
      25      1.008  
      26      1.008  
      27      1.008  
      28      1.008  

Pair Coeffs 

       1      0.066  3.5000000 
       2      0.076  3.5500000 
       3      0.076  3.5500000 
       4      0.070  3.5500000 
       5      0.210  2.9600000 
       6      0.140  2.9000000 
       7      0.066  3.5000000 
       8      0.066  3.5000000 
       9      0.140  2.9000000 
      10      0.070  3.5500000 
      11      0.210  2.9600000 
      12      0.076  3.5500000 
      13      0.076  3.5500000 
      14      0.066  3.5000000 
      15      0.030  2.5000000 
      16      0.030  2.5000000 
      17      0.030  2.5000000 
      18      0.030  2.5000000 
      19      0.030  2.5000000 
      20      0.030  2.5000000 
      21      0.030  2.5000000 
      22      0.030  2.5000000 
      23      0.030  2.5000000 
      24      0.030  2.5000000 
      25      0.030  2.5000000 
      26      0.030  2.5000000 
      27      0.030  2.5000000 
      28      0.030  2.5000000 

Bond Coeffs 

       1   317.0000     1.5100 
       2   549.0000     1.3400 
       3   410.0000     1.4440 
       4   570.0000     1.2290 
       5   214.0000     1.3270 
       6   320.0000     1.4100 
       7   268.0000     1.5290 
       8   320.0000     1.4100 
       9   214.0000     1.3270 
      10   570.0000     1.2290 
      11   410.0000     1.4440 
      12   549.0000     1.3400 
      13   317.0000     1.5100 
      14   340.0000     1.0900 
      15   340.0000     1.0900 
      16   340.0000     1.0900 
      17   340.0000     1.0800 
      18   340.0000     1.0800 
      19   340.0000     1.0900 
      20   340.0000     1.0900 
      21   340.0000     1.0900 
      22   340.0000     1.0900 
      23   340.0000     1.0800 
      24   340.0000     1.0800 
      25   340.0000     1.0900 
      26   340.0000     1.0900 
      27   340.0000     1.0900 

Angle Coeffs 

       1     70.000    124.000
       2     70.000    119.700
       3     80.000    125.300
       4     81.000    111.400
       5     83.000    116.900
       6     50.000    109.500
       7     50.000    109.500
       8     83.000    116.900
       9     83.000    123.400
      10     81.000    111.400
      11     85.000    120.700
      12     70.000    119.700
      13     35.000    109.500
      14     35.000    109.500
      15     35.000    109.500
      16     35.000    120.000
      17     35.000    120.000
      18     35.000    109.500
      19     35.000    109.500
      20     37.500    110.700
      21     37.500    110.700
      22     35.000    120.000
      23     35.000    120.000
      24     35.000    109.500
      25     35.000    109.500
      26     35.000    109.500
      27     83.000    123.400
      28     33.000    107.800
      29     70.000    124.000
      30     80.000    125.300
      31     35.000    117.000
      32     33.000    107.800
      33     35.000    109.500
      34     33.000    107.800
      35     35.000    117.000
      36     33.000    107.800
      37     33.000    107.800
      38     85.000    120.700
      39     33.000    107.800
      40     37.500    110.700
      41     33.000    107.800
      42     33.000    107.800
      43     37.500    110.700
      44     35.000    109.500

Dihedral Coeffs  

       1      0.900      0.230     -0.505      0.000 
       2      4.669      5.124      0.000      0.000 
       3     -1.220     -0.126      0.422      0.000 
       4     -0.550      0.000      0.000      0.000 
       5     -1.220     -0.126      0.422      0.000 
       6      0.000      5.124      0.000      0.000 
       7      3.200     -3.000      0.000      0.000 
       8      0.000      0.000     -0.372      0.000 
       9      0.000     14.000      0.000      0.000 
      10      0.000     14.000      0.000      0.000 
      11      0.000      0.000     -0.372      0.000 
      12      0.000     14.000      0.000      0.000 
      13      0.000     14.000      0.000      0.000 
      14      0.000      0.000      0.300      0.000 
      15      0.000      0.000     -0.372      0.000 
      16      0.000      0.000      0.468      0.000 
      17      0.000      0.000      0.198      0.000 
      18      2.500      6.000      0.000      0.000 
      19      0.000      0.000      0.468      0.000 
      20      0.000     14.000      0.000      0.000 
      21      0.000      0.000     -0.372      0.000 
      22      0.000      0.000     -0.372      0.000 
      23      0.000      0.000      0.468      0.000 
      24      0.000      0.000      0.198      0.000 
      25      4.669      5.124      0.000      0.000 
      26      0.000      0.000      0.300      0.000 
      27      0.000      0.000     -0.372      0.000 
      28      0.000     14.000      0.000      0.000 
      29      0.900      0.230     -0.505      0.000 
      30      0.900      0.230     -0.505      0.000 
      31      2.500      6.000      0.000      0.000 
      32      0.000     14.000      0.000      0.000 
      33      0.000     14.000      0.000      0.000 
      34      0.000      0.000     -0.372      0.000 
      35      0.000      0.000     -0.372      0.000 
      36      0.000      0.000      0.300      0.000 
      37      3.200     -3.000      0.000      0.000 
      38      0.000      0.000     -0.372      0.000 
      39      0.000      0.000     -0.372      0.000 
      40      0.900      0.230     -0.505      0.000 
      41      0.000      0.000      0.468      0.000 
      42      0.000      0.000      0.198      0.000 
      43      0.000      0.000     -0.372      0.000 
      44      0.000      0.000      0.300      0.000 
      45      0.000      0.000      0.198      0.000 
      46      0.000      5.124      0.000      0.000 
      47      0.000      0.000     -0.372      0.000 

Improper Coeffs 

       1      2.500      -1       2 
       2     10.500      -1       2 
       3     10.500      -1       2 
       4      2.500      -1       2 
       5      0.000      -1       2 
       6      0.000      -1       2 
       7      2.500      -1       2 
       8      0.000      -1       2 
       9      0.000      -1       2 
      10      0.000      -1       2 
      11      0.000      -1       2 
      12      2.500      -1       2 
      13      0.000      -1       2 
      14      0.000      -1       2 

Atoms 

     1      1      1 -0.19520000    1.000  1.00000  0.00000
     2      1      2 -0.16370000   -0.499  1.00000  0.00000
     3      1      3 -0.16050000   -1.217  1.00000  1.13602
     4      1      4 0.47930000   -1.126  1.00171 -1.35345
     5      1      5 -0.45560000   -0.475  1.00302 -2.38824
     6      1      6 -0.34750000   -2.480  1.00321 -1.27968
     7      1      7 -0.02500000   -3.165  1.00657 -2.54653
     8      1      8 -0.02440000   -3.205  2.41378 -3.14426
     9      1      9 -0.34850000   -3.917  3.32105 -2.28127
    10      1     10 0.48140000   -5.269  3.25518 -2.36033
    11      1     11 -0.45580000   -5.893  2.50043 -3.09244
    12      1     12 -0.16170000   -5.921  4.22620 -1.43299
    13      1     13 -0.16180000   -5.214  5.04651 -0.63505
    14      1     14 -0.20320000   -7.421  4.24925 -1.42578
    15      1     15 0.10140000    1.409  1.00000  1.01595
    16      1     16 0.10140000    1.383  1.89031 -0.51029
    17      1     17 0.10140000    1.382  0.11033 -0.51129
    18      1     18 0.14510000   -0.731  1.00000  2.10650
    19      1     19 0.14510000   -2.303  1.00116  1.13730
    20      1     20 0.13690000   -4.177  0.64044 -2.34534
    21      1     21 0.13690000   -2.693  0.29786 -3.23674
    22      1     22 0.13680000   -3.656  2.40350 -4.14326
    23      1     23 0.13680000   -2.195  2.82129 -3.24685
    24      1     24 0.14530000   -4.128  5.05209 -0.61712
    25      1     25 0.14530000   -5.715  5.74259  0.03097
    26      1     26 0.10340000   -7.861  3.52966 -2.12222
    27      1     27 0.10340000   -7.787  5.24149 -1.70991
    28      1     28 0.10340000   -7.800  4.00661 -0.42730

Bonds 

     1      1      2      1
     2      2      3      2
     3      3      4      2
     4      4      5      4
     5      5      6      4
     6      6      7      6
     7      7      8      7
     8      8      9      8
     9      9     10      9
    10     10     11     10
    11     11     12     10
    12     12     13     12
    13     13     14     12
    14     14     15      1
    15     15     16      1
    16     16     17      1
    17     17     18      3
    18     18     19      3
    19     19     20      7
    20     20     21      7
    21     21     22      8
    22     22     23      8
    23     23     24     13
    24     24     25     13
    25     25     26     14
    26     26     27     14
    27     27     28     14

Angles 

     1      1      1      2      3
     2      2      1      2      4
     3      3      2      4      5
     4      4      2      4      6
     5      5      4      6      7
     6      6      6      7      8
     7      7      7      8      9
     8      8      8      9     10
     9      9      9     10     11
    10     10      9     10     12
    11     11     10     12     13
    12     12     10     12     14
    13     13      2      1     15
    14     14      2      1     16
    15     15      2      1     17
    16     16      2      3     18
    17     17      2      3     19
    18     18      6      7     20
    19     19      6      7     21
    20     20      7      8     22
    21     21      7      8     23
    22     22     12     13     24
    23     23     12     13     25
    24     24     12     14     26
    25     25     12     14     27
    26     26     12     14     28
    27     27      5      4      6
    28     28     26     14     28
    29     29     13     12     14
    30     30     11     10     12
    31     31     24     13     25
    32     32     15      1     17
    33     33      9      8     23
    34     34     27     14     28
    35     35     18      3     19
    36     36     20      7     21
    37     37     15      1     16
    38     38      3      2      4
    39     39     16      1     17
    40     40      8      7     21
    41     41     26     14     27
    42     42     22      8     23
    43     43      8      7     20
    44     44      9      8     22

Dihedrals

     1      1      5      4      2      1 
     2      2      7      6      4      2 
     3      3      8      7      6      4 
     4      4      9      8      7      6 
     5      5     10      9      8      7 
     6      6     11     10      9      8 
     7      7     13     12     10      9 
     8      8     15      1      2      3 
     9      9     18      3      2      1 
    10     10     24     13     12     10 
    11     11     26     14     12     10 
    12     12     24     13     12     14 
    13     13     19      3      2      1 
    14     14     23      8      7     20 
    15     15     26     14     12     13 
    16     16     21      7      8      9 
    17     17     22      8      9     10 
    18     18      5      4      2      3 
    19     19     23      8      7      6 
    20     20     19      3      2      4 
    21     21     28     14     12     10 
    22     22     28     14     12     13 
    23     23     20      7      8      9 
    24     24     23      8      9     10 
    25     25     12     10      9      8 
    26     26     23      8      7     21 
    27     27     27     14     12     13 
    28     28     18      3      2      4 
    29     29     14     12     10     11 
    30     30      6      4      2      1 
    31     31     13     12     10     11 
    32     32     25     13     12     14 
    33     33     25     13     12     10 
    34     34     27     14     12     10 
    35     35     16      1      2      4 
    36     36     22      8      7     20 
    37     37      6      4      2      3 
    38     38     15      1      2      4 
    39     39     16      1      2      3 
    40     40     14     12     10      9 
    41     41     22      8      7      6 
    42     42     20      7      6      4 
    43     43     17      1      2      4 
    44     44     22      8      7     21 
    45     45     21      7      6      4 
    46     46      7      6      4      5 
    47     47     17      1      2      3 

Impropers

     1      1      2      1      3      4 
     2      2      4      2      5      6 
     3      3     10      9     11     12 
     4      4     12     10     13     14 
     5      5      1      2     15     16 
     6      6      1     17     15      2 
     7      7      3      2     19     18 
     8      8      7     20      6      8 
     9      9      7     21      6      8 
    10     10      8      9     22      7 
    11     11      8      9      7     23 
    12     12     13     25     12     24 
    13     13     14     26     27     12 
    14     14     14     12     26     28 

