LAMMPS data file Created by LigParGen - (Written by Leela S. Dodda)

      15 atoms
      16 bonds
      27 angles
      35 dihedrals
       8 impropers
 
      15 atom types
      16 bond types
      27 angle types
      35 dihedral types
       8 improper types
 
   -1.832500    48.167500 xlo xhi
    0.084450    50.084450 ylo yhi
   -1.033490    48.966510 zlo zhi

Masses

       1     12.011  
       2     12.011  
       3     15.999  
       4     12.011  
       5     12.011  
       6     32.060  
       7     12.011  
       8     12.011  
       9     15.999  
      10      1.008  
      11      1.008  
      12      1.008  
      13      1.008  
      14      1.008  
      15      1.008  

Pair Coeffs 

       1      0.066  3.5000000 
       2      0.066  3.5000000 
       3      0.140  2.9000000 
       4      0.070  3.5500000 
       5      0.070  3.5500000 
       6      0.355  3.6000000 
       7      0.070  3.5500000 
       8      0.070  3.5500000 
       9      0.140  2.9000000 
      10      0.030  2.5000000 
      11      0.030  2.5000000 
      12      0.030  2.5000000 
      13      0.030  2.5000000 
      14      0.030  2.4200000 
      15      0.030  2.4200000 

Bond Coeffs 

       1   268.0000     1.5290 
       2   320.0000     1.4100 
       3   450.0000     1.3640 
       4   546.0000     1.3670 
       5   250.0000     1.7400 
       6   250.0000     1.7400 
       7   469.0000     1.4240 
       8   320.0000     1.4100 
       9   340.0000     1.0900 
      10   340.0000     1.0900 
      11   340.0000     1.0900 
      12   340.0000     1.0900 
      13   367.0000     1.0800 
      14   367.0000     1.0800 
      15   546.0000     1.3670 
      16   450.0000     1.3640 

Angle Coeffs 

       1     50.000    109.500
       2     75.000    111.000
       3     62.750    119.200
       4     70.000    111.170
       5     74.000     97.000
       6     70.000    120.000
       7     50.000    109.500
       8     37.500    110.700
       9     37.500    110.700
      10     37.500    110.700
      11     37.500    110.700
      12     35.000    132.100
      13     35.000    125.000
      14     33.000    107.800
      15     35.000    132.100
      16     35.000    125.000
      17     70.000    111.170
      18     70.000    107.300
      19     70.000    120.000
      20     35.000    109.500
      21     75.000    111.000
      22     33.000    107.800
      23     35.000    109.500
      24     35.000    109.500
      25     70.000    107.300
      26     35.000    109.500
      27     62.750    119.200

Dihedral Coeffs  

       1      0.650     -0.250      0.670      0.000 
       2      0.650     -0.250      0.670      0.000 
       3      0.000      2.170      0.000      0.000 
       4      0.000      0.000      0.000      0.000 
       5     -0.550      0.000      0.000      0.000 
       6      0.000      0.000      0.300      0.000 
       7      0.000      0.000      0.760      0.000 
       8      0.000      0.000      0.468      0.000 
       9      0.000      0.000      0.760      0.000 
      10      0.000      7.250      0.000      0.000 
      11      0.000      7.250      0.000      0.000 
      12      0.650     -0.250      0.670      0.000 
      13      0.000      2.170      0.000      0.000 
      14      0.000      2.170      0.000      0.000 
      15      0.000      2.100      0.000      0.000 
      16      0.000      0.000      0.300      0.000 
      17      0.650     -0.250      0.670      0.000 
      18      0.000      0.000      0.760      0.000 
      19      0.650     -0.250      0.670      0.000 
      20      0.000      2.170      0.000      0.000 
      21      0.000      0.000      0.760      0.000 
      22      0.000      7.250      0.000      0.000 
      23      0.000      2.170      0.000      0.000 
      24      0.000      0.000      0.300      0.000 
      25      0.000      0.000      0.300      0.000 
      26      0.000      2.170      0.000      0.000 
      27      0.000      7.250      0.000      0.000 
      28      0.650     -0.250      0.670      0.000 
      29      0.000      0.000      0.468      0.000 
      30      0.000      0.000      0.468      0.000 
      31      0.000      2.100      0.000      0.000 
      32      0.000      0.000      0.000      0.000 
      33      0.000      7.250      0.000      0.000 
      34      0.000      7.250      0.000      0.000 
      35      0.000      0.000      0.468      0.000 

Improper Coeffs 

       1      2.500      -1       2 
       2      0.000      -1       2 
       3      0.000      -1       2 
       4      0.000      -1       2 
       5      0.000      -1       2 
       6      2.500      -1       2 
       7      2.500      -1       2 
       8      2.500      -1       2 

Atoms 

     1      1      1 -0.03670000    0.991227      0.972220     -0.001606
     2      1      2 -0.03680000   -0.527013      1.013222     -0.022336
     3      1      3 -0.25870000   -1.055383      0.969085      1.309200
     4      1      4 0.04980000    -0.412129      1.833214      2.150874
     5      1      5 -0.25860000   -0.891739      2.240178      3.359916
     6      1      6 0.09630000     0.225345      3.314924      4.137918
     7      1      7 -0.26290000    1.347801      3.211587      2.819584
     8      1      8 0.05390000     0.874312      2.388531      1.842012
     9      1      9 -0.25640000    1.524065      2.121235      0.669542
    10      1     10 0.12390000     1.393589      0.998300     -1.014758
    11      1     11 0.12390000     1.337345      0.061846      0.502368
    12      1     12 0.12370000    -0.931238      0.142052     -0.538746
    13      1     13 0.12370000    -0.874832      1.924629     -0.523557
    14      1     14 0.20750000    -1.825201      1.969599      3.825752
    15      1     15 0.20740000     2.278850      3.754378      2.832837

Bonds 

     1      1      2      1
     2      2      3      2
     3      3      4      3
     4      4      5      4
     5      5      6      5
     6      6      7      6
     7      7      8      4
     8      8      9      1
     9      9     10      1
    10     10     11      1
    11     11     12      2
    12     12     13      2
    13     13     14      5
    14     14     15      7
    15     15      8      7
    16     16      9      8

Angles 

     1      1      1      2      3
     2      2      2      3      4
     3      3      3      4      5
     4      4      4      5      6
     5      5      5      6      7
     6      6      3      4      8
     7      7      2      1      9
     8      8      2      1     10
     9      9      2      1     11
    10     10      1      2     12
    11     11      1      2     13
    12     12      4      5     14
    13     13      6      7     15
    14     14     12      2     13
    15     15      8      7     15
    16     16      6      5     14
    17     17      6      7      8
    18     18      5      4      8
    19     19      4      8      9
    20     20      3      2     12
    21     21      1      9      8
    22     22     10      1     11
    23     23      3      2     13
    24     24      9      1     10
    25     25      4      8      7
    26     26      9      1     11
    27     27      7      8      9

Dihedrals

     1      1      4      3      2      1 
     2      2      5      4      3      2 
     3      3      6      5      4      3 
     4      4      7      6      5      4 
     5      5      9      1      2      3 
     6      6     12      2      1     10 
     7      7     11      1      9      8 
     8      8     11      1      2      3 
     9      9     10      1      9      8 
    10     10     15      7      8      4 
    11     11     14      5      4      8 
    12     12      8      4      3      2 
    13     13      9      8      4      3 
    14     14      7      8      4      5 
    15     15      8      4      5      6 
    16     16     13      2      1     11 
    17     17      7      8      9      1 
    18     18     12      2      3      4 
    19     19      8      9      1      2 
    20     20      9      8      7      6 
    21     21     13      2      3      4 
    22     22     14      5      6      7 
    23     23      7      8      4      3 
    24     24     12      2      1     11 
    25     25     13      2      1     10 
    26     26      9      8      4      5 
    27     27     15      7      8      9 
    28     28      4      8      9      1 
    29     29     10      1      2      3 
    30     30     13      2      1      9 
    31     31      6      7      8      4 
    32     32      8      7      6      5 
    33     33     15      7      6      5 
    34     34     14      5      4      3 
    35     35     12      2      1      9 

Impropers

     1      1      4      3      5      8 
     2      2      1     10      9      2 
     3      3      1      2     11      9 
     4      4      2      1      3     12 
     5      5      2      1      3     13 
     6      6      5      4     14      6 
     7      7      7      8     15      6 
     8      8      8      9      4      7 

