LAMMPS data file Created by LigParGen - (Written by Leela S. Dodda)

       9 atoms
       8 bonds
      13 angles
      12 dihedrals
       4 impropers
 
       9 atom types
       8 bond types
      13 angle types
      12 dihedral types
       4 improper types
 
   -0.999210    49.000790 xlo xhi
    0.117780    50.117780 ylo yhi
   -1.021790    48.978210 zlo zhi

Masses

       1     12.011  
       2     12.011  
       3     15.999  
       4      1.008  
       5      1.008  
       6      1.008  
       7      1.008  
       8      1.008  
       9      1.008  

Pair Coeffs 

       1      0.066  3.5000000 
       2      0.066  3.5000000 
       3      0.170  3.1200000 
       4      0.030  2.5000000 
       5      0.030  2.5000000 
       6      0.030  2.5000000 
       7      0.030  2.5000000 
       8      0.030  2.5000000 
       9      0.000  0.0000000 

Bond Coeffs 

       1   268.0000     1.5290 
       2   320.0000     1.4100 
       3   340.0000     1.0900 
       4   340.0000     1.0900 
       5   340.0000     1.0900 
       6   340.0000     1.0900 
       7   340.0000     1.0900 
       8   553.0000     0.9450 

Angle Coeffs 

       1     50.000    109.500
       2     37.500    110.700
       3     37.500    110.700
       4     37.500    110.700
       5     37.500    110.700
       6     37.500    110.700
       7     55.000    108.500
       8     33.000    107.800
       9     33.000    107.800
      10     35.000    109.500
      11     35.000    109.500
      12     33.000    107.800
      13     33.000    107.800

Dihedral Coeffs  

       1      0.000      0.000      0.468      0.000 
       2     -0.356     -0.174      0.492      0.000 
       3      0.000      0.000      0.468      0.000 
       4      0.000      0.000      0.300      0.000 
       5      0.000      0.000      0.352      0.000 
       6      0.000      0.000      0.352      0.000 
       7      0.000      0.000      0.300      0.000 
       8      0.000      0.000      0.300      0.000 
       9      0.000      0.000      0.300      0.000 
      10      0.000      0.000      0.468      0.000 
      11      0.000      0.000      0.300      0.000 
      12      0.000      0.000      0.300      0.000 

Improper Coeffs 

       1      0.000      -1       2 
       2      0.000      -1       2 
       3      0.000      -1       2 
       4      0.000      -1       2 

Atoms 

     1      1      1 -0.28950000    1.000  1.00000  0.00000
     2      1      2 0.00960000   -0.515  1.00000  0.00000
     3      1      3 -0.58830000   -0.999  1.00000  1.33499
     4      1      4 0.09150000    1.390  1.00129 -1.02179
     5      1      5 0.09150000    1.387  0.11900  0.52261
     6      1      6 0.09150000    1.385  1.87980  0.52629
     7      1      7 0.09390000   -0.907  0.11778 -0.51518
     8      1      8 0.09390000   -0.897  1.89395 -0.50151
     9      1      9 0.40580000   -0.661  0.19801  1.76846

Bonds 

     1      1      2      1
     2      2      3      2
     3      3      4      1
     4      4      5      1
     5      5      6      1
     6      6      7      2
     7      7      8      2
     8      8      9      3

Angles 

     1      1      1      2      3
     2      2      2      1      4
     3      3      2      1      5
     4      4      2      1      6
     5      5      1      2      7
     6      6      1      2      8
     7      7      2      3      9
     8      8      4      1      5
     9      9      5      1      6
    10     10      3      2      7
    11     11      3      2      8
    12     12      4      1      6
    13     13      7      2      8

Dihedrals

     1      1      4      1      2      3 
     2      2      9      3      2      1 
     3      3      5      1      2      3 
     4      4      8      2      1      6 
     5      5      9      3      2      8 
     6      6      9      3      2      7 
     7      7      7      2      1      5 
     8      8      8      2      1      4 
     9      9      8      2      1      5 
    10     10      6      1      2      3 
    11     11      7      2      1      6 
    12     12      7      2      1      4 

Impropers

     1      1      1      2      4      5 
     2      2      1      2      4      6 
     3      3      2      1      3      7 
     4      4      2      1      3      8 

