LAMMPS data file Created by LigParGen - (Written by Leela S. Dodda)

      28 atoms
      27 bonds
      44 angles
      47 dihedrals
      14 impropers
 
      28 atom types
      27 bond types
      44 angle types
      47 dihedral types
      14 improper types
 
   -7.836530    42.163470 xlo xhi
    0.108540    50.108540 ylo yhi
   -3.962410    46.037590 zlo zhi

Masses

       1     12.011  
       2     12.011  
       3     12.011  
       4     12.011  
       5     15.999  
       6     15.999  
       7     12.011  
       8     12.011  
       9     15.999  
      10     12.011  
      11     15.999  
      12     12.011  
      13     12.011  
      14     12.011  
      15      1.008  
      16      1.008  
      17      1.008  
      18      1.008  
      19      1.008  
      20      1.008  
      21      1.008  
      22      1.008  
      23      1.008  
      24      1.008  
      25      1.008  
      26      1.008  
      27      1.008  
      28      1.008  

Pair Coeffs 

       1      0.076  3.5500000 
       2      0.076  3.5500000 
       3      0.066  3.5000000 
       4      0.070  3.5500000 
       5      0.210  2.9600000 
       6      0.140  2.9000000 
       7      0.066  3.5000000 
       8      0.066  3.5000000 
       9      0.140  2.9000000 
      10      0.070  3.5500000 
      11      0.210  2.9600000 
      12      0.076  3.5500000 
      13      0.076  3.5500000 
      14      0.066  3.5000000 
      15      0.030  2.5000000 
      16      0.030  2.5000000 
      17      0.030  2.5000000 
      18      0.030  2.5000000 
      19      0.030  2.5000000 
      20      0.030  2.5000000 
      21      0.030  2.5000000 
      22      0.030  2.5000000 
      23      0.030  2.5000000 
      24      0.030  2.5000000 
      25      0.030  2.5000000 
      26      0.030  2.5000000 
      27      0.030  2.5000000 
      28      0.030  2.5000000 

Bond Coeffs 

       1   549.0000     1.3400 
       2   317.0000     1.5100 
       3   410.0000     1.4440 
       4   570.0000     1.2290 
       5   214.0000     1.3270 
       6   320.0000     1.4100 
       7   268.0000     1.5290 
       8   320.0000     1.4100 
       9   214.0000     1.3270 
      10   570.0000     1.2290 
      11   410.0000     1.4440 
      12   549.0000     1.3400 
      13   317.0000     1.5100 
      14   340.0000     1.0800 
      15   340.0000     1.0800 
      16   340.0000     1.0900 
      17   340.0000     1.0900 
      18   340.0000     1.0900 
      19   340.0000     1.0900 
      20   340.0000     1.0900 
      21   340.0000     1.0900 
      22   340.0000     1.0900 
      23   340.0000     1.0800 
      24   340.0000     1.0800 
      25   340.0000     1.0900 
      26   340.0000     1.0900 
      27   340.0000     1.0900 

Angle Coeffs 

       1     70.000    124.000
       2     85.000    120.700
       3     80.000    125.300
       4     81.000    111.400
       5     83.000    116.900
       6     50.000    109.500
       7     50.000    109.500
       8     83.000    116.900
       9     83.000    123.400
      10     81.000    111.400
      11     85.000    120.700
      12     70.000    119.700
      13     35.000    120.000
      14     35.000    120.000
      15     35.000    109.500
      16     35.000    109.500
      17     35.000    109.500
      18     35.000    109.500
      19     35.000    109.500
      20     37.500    110.700
      21     37.500    110.700
      22     35.000    120.000
      23     35.000    120.000
      24     35.000    109.500
      25     35.000    109.500
      26     35.000    109.500
      27     83.000    123.400
      28     33.000    107.800
      29     70.000    124.000
      30     80.000    125.300
      31     33.000    107.800
      32     35.000    117.000
      33     33.000    107.800
      34     35.000    109.500
      35     33.000    107.800
      36     33.000    107.800
      37     33.000    107.800
      38     35.000    117.000
      39     70.000    119.700
      40     37.500    110.700
      41     33.000    107.800
      42     33.000    107.800
      43     37.500    110.700
      44     35.000    109.500

Dihedral Coeffs  

       1      2.500      6.000      0.000      0.000 
       2      4.669      5.124      0.000      0.000 
       3     -1.220     -0.126      0.422      0.000 
       4     -0.550      0.000      0.000      0.000 
       5     -1.220     -0.126      0.422      0.000 
       6      0.000      5.124      0.000      0.000 
       7      3.200     -3.000      0.000      0.000 
       8      0.000     14.000      0.000      0.000 
       9      0.000      0.000     -0.372      0.000 
      10      0.000     14.000      0.000      0.000 
      11      0.000      0.000     -0.372      0.000 
      12      0.000      0.000     -0.372      0.000 
      13      0.000     14.000      0.000      0.000 
      14      0.000      0.000     -0.372      0.000 
      15      0.000      0.000      0.300      0.000 
      16      0.000      0.000     -0.372      0.000 
      17      0.000      0.000      0.468      0.000 
      18      0.000      0.000      0.198      0.000 
      19      0.900      0.230     -0.505      0.000 
      20      0.000      0.000      0.468      0.000 
      21      0.000      0.000     -0.372      0.000 
      22      0.000      0.000     -0.372      0.000 
      23      0.000      0.000     -0.372      0.000 
      24      0.000      0.000      0.468      0.000 
      25      0.000      0.000      0.198      0.000 
      26      4.669      5.124      0.000      0.000 
      27      0.000      0.000      0.300      0.000 
      28      0.000      0.000     -0.372      0.000 
      29      0.000      0.000     -0.372      0.000 
      30      0.900      0.230     -0.505      0.000 
      31      3.200     -3.000      0.000      0.000 
      32      2.500      6.000      0.000      0.000 
      33      0.000     14.000      0.000      0.000 
      34      0.000     14.000      0.000      0.000 
      35      0.000      0.000     -0.372      0.000 
      36      0.000     14.000      0.000      0.000 
      37      0.000      0.000      0.300      0.000 
      38      0.900      0.230     -0.505      0.000 
      39      0.000     14.000      0.000      0.000 
      40      0.000     14.000      0.000      0.000 
      41      0.900      0.230     -0.505      0.000 
      42      0.000      0.000     -0.372      0.000 
      43      0.000      0.000      0.198      0.000 
      44      0.000      0.000      0.300      0.000 
      45      0.000      0.000      0.468      0.000 
      46      0.000      0.000      0.198      0.000 
      47      0.000      5.124      0.000      0.000 

Improper Coeffs 

       1      2.500      -1       2 
       2     10.500      -1       2 
       3     10.500      -1       2 
       4      2.500      -1       2 
       5      2.500      -1       2 
       6      0.000      -1       2 
       7      0.000      -1       2 
       8      0.000      -1       2 
       9      0.000      -1       2 
      10      0.000      -1       2 
      11      0.000      -1       2 
      12      2.500      -1       2 
      13      0.000      -1       2 
      14      0.000      -1       2 

Atoms 

     1      1      1 -0.16460000    1.000  1.00000  0.00000
     2      1      2 -0.16390000   -0.344  1.00000  0.00000
     3      1      3 -0.18910000   -1.151  1.00000  1.26011
     4      1      4 0.47850000   -1.030  1.00167 -1.32246
     5      1      5 -0.46190000   -0.448  1.00303 -2.39828
     6      1      6 -0.33980000   -2.376  1.00307 -1.16093
     7      1      7 -0.02820000   -3.135  1.00641 -2.38672
     8      1      8 -0.02350000   -3.212  2.41362 -2.98172
     9      1      9 -0.34880000   -3.900  3.31098 -2.08992
    10      1     10 0.48110000   -5.254  3.23062 -2.12037
    11      1     11 -0.45660000   -5.893  2.46986 -2.83375
    12      1     12 -0.16120000   -5.884  4.18995 -1.16825
    13      1     13 -0.16160000   -5.161  5.01648 -0.39232
    14      1     14 -0.20330000   -7.383  4.19313 -1.11028
    15      1     15 0.14830000    1.569  1.00000  0.92386
    16      1     16 0.14830000    1.569  0.99883 -0.92666
    17      1     17 0.09970000   -0.510  1.00000  2.14860
    18      1     18 0.09970000   -1.784  0.10854  1.31392
    19      1     19 0.09970000   -1.784  1.89144  1.31392
    20      1     20 0.13680000   -4.132  0.63590 -2.12892
    21      1     21 0.13680000   -2.702  0.30011 -3.10473
    22      1     22 0.13650000   -3.702  2.40046 -3.96241
    23      1     23 0.13650000   -2.211  2.83302 -3.12390
    24      1     24 0.14510000   -4.075  5.03549 -0.41192
    25      1     25 0.14510000   -5.647  5.70422  0.29311
    26      1     26 0.10350000   -7.837  3.46961 -1.79436
    27      1     27 0.10350000   -7.772  5.18096 -1.37945
    28      1     28 0.10350000   -7.726  3.94240 -0.10056

Bonds 

     1      1      2      1
     2      2      3      2
     3      3      4      2
     4      4      5      4
     5      5      6      4
     6      6      7      6
     7      7      8      7
     8      8      9      8
     9      9     10      9
    10     10     11     10
    11     11     12     10
    12     12     13     12
    13     13     14     12
    14     14     15      1
    15     15     16      1
    16     16     17      3
    17     17     18      3
    18     18     19      3
    19     19     20      7
    20     20     21      7
    21     21     22      8
    22     22     23      8
    23     23     24     13
    24     24     25     13
    25     25     26     14
    26     26     27     14
    27     27     28     14

Angles 

     1      1      1      2      3
     2      2      1      2      4
     3      3      2      4      5
     4      4      2      4      6
     5      5      4      6      7
     6      6      6      7      8
     7      7      7      8      9
     8      8      8      9     10
     9      9      9     10     11
    10     10      9     10     12
    11     11     10     12     13
    12     12     10     12     14
    13     13      2      1     15
    14     14      2      1     16
    15     15      2      3     17
    16     16      2      3     18
    17     17      2      3     19
    18     18      6      7     20
    19     19      6      7     21
    20     20      7      8     22
    21     21      7      8     23
    22     22     12     13     24
    23     23     12     13     25
    24     24     12     14     26
    25     25     12     14     27
    26     26     12     14     28
    27     27      5      4      6
    28     28     26     14     28
    29     29     13     12     14
    30     30     11     10     12
    31     31     17      3     18
    32     32     24     13     25
    33     33     20      7     21
    34     34      9      8     23
    35     35     27     14     28
    36     36     18      3     19
    37     37     22      8     23
    38     38     15      1     16
    39     39      3      2      4
    40     40      8      7     21
    41     41     17      3     19
    42     42     26     14     27
    43     43      8      7     20
    44     44      9      8     22

Dihedrals

     1      1      5      4      2      1 
     2      2      7      6      4      2 
     3      3      8      7      6      4 
     4      4      9      8      7      6 
     5      5     10      9      8      7 
     6      6     11     10      9      8 
     7      7     13     12     10      9 
     8      8     15      1      2      3 
     9      9     17      3      2      1 
    10     10     24     13     12     10 
    11     11     26     14     12     10 
    12     12     18      3      2      1 
    13     13     24     13     12     14 
    14     14     19      3      2      1 
    15     15     23      8      7     20 
    16     16     26     14     12     13 
    17     17     21      7      8      9 
    18     18     22      8      9     10 
    19     19      5      4      2      3 
    20     20     23      8      7      6 
    21     21     19      3      2      4 
    22     22     28     14     12     10 
    23     23     28     14     12     13 
    24     24     20      7      8      9 
    25     25     23      8      9     10 
    26     26     12     10      9      8 
    27     27     23      8      7     21 
    28     28     27     14     12     13 
    29     29     18      3      2      4 
    30     30     14     12     10     11 
    31     31      6      4      2      1 
    32     32     13     12     10     11 
    33     33     25     13     12     14 
    34     34     25     13     12     10 
    35     35     27     14     12     10 
    36     36     16      1      2      4 
    37     37     22      8      7     20 
    38     38      6      4      2      3 
    39     39     15      1      2      4 
    40     40     16      1      2      3 
    41     41     14     12     10      9 
    42     42     17      3      2      4 
    43     43     20      7      6      4 
    44     44     22      8      7     21 
    45     45     22      8      7      6 
    46     46     21      7      6      4 
    47     47      7      6      4      5 

Impropers

     1      1      2      1      3      4 
     2      2      4      2      5      6 
     3      3     10      9     11     12 
     4      4     12     10     13     14 
     5      5      1      2     15     16 
     6      6      3     17     18      2 
     7      7      3     17      2     19 
     8      8      7     20      6      8 
     9      9      7     21      6      8 
    10     10      8      9     22      7 
    11     11      8      9      7     23 
    12     12     13     25     12     24 
    13     13     14     26     27     12 
    14     14     14     12     26     28 

