LAMMPS data file Created by LigParGen - (Written by Leela S. Dodda)

       9 atoms
       8 bonds
      13 angles
      12 dihedrals
       4 impropers
 
       9 atom types
       8 bond types
      13 angle types
      12 dihedral types
       4 improper types
 
   -2.005070    47.994930 xlo xhi
    0.107710    50.107710 ylo yhi
   -0.929950    49.070050 zlo zhi

Masses

       1     15.999  
       2     12.011  
       3     12.011  
       4      1.008  
       5      1.008  
       6      1.008  
       7      1.008  
       8      1.008  
       9      1.008  

Pair Coeffs 

       1      0.170  3.1200000 
       2      0.066  3.5000000 
       3      0.066  3.5000000 
       4      0.000  0.0000000 
       5      0.030  2.5000000 
       6      0.030  2.5000000 
       7      0.030  2.5000000 
       8      0.030  2.5000000 
       9      0.030  2.5000000 

Bond Coeffs 

       1   320.0000     1.4100 
       2   268.0000     1.5290 
       3   553.0000     0.9450 
       4   340.0000     1.0900 
       5   340.0000     1.0900 
       6   340.0000     1.0900 
       7   340.0000     1.0900 
       8   340.0000     1.0900 

Angle Coeffs 

       1     50.000    109.500
       2     55.000    108.500
       3     35.000    109.500
       4     35.000    109.500
       5     37.500    110.700
       6     37.500    110.700
       7     37.500    110.700
       8     33.000    107.800
       9     33.000    107.800
      10     33.000    107.800
      11     37.500    110.700
      12     37.500    110.700
      13     33.000    107.800

Dihedral Coeffs  

       1     -0.356     -0.174      0.492      0.000 
       2      0.000      0.000      0.468      0.000 
       3      0.000      0.000      0.300      0.000 
       4      0.000      0.000      0.468      0.000 
       5      0.000      0.000      0.468      0.000 
       6      0.000      0.000      0.300      0.000 
       7      0.000      0.000      0.300      0.000 
       8      0.000      0.000      0.300      0.000 
       9      0.000      0.000      0.300      0.000 
      10      0.000      0.000      0.352      0.000 
      11      0.000      0.000      0.352      0.000 
      12      0.000      0.000      0.300      0.000 

Improper Coeffs 

       1      0.000      -1       2 
       2      0.000      -1       2 
       3      0.000      -1       2 
       4      0.000      -1       2 

Atoms 

     1      1      1 -0.69150000    1.005697      1.000005      0.002456
     2      1      2 0.11210000    -0.425625      0.999994     -0.007228
     3      1      3 -0.24610000   -0.902093      0.999572      1.433005
     4      1      4 0.40700000     1.324388      1.000765     -0.905047
     5      1      5 0.06710000    -0.804878      0.112347     -0.532079
     6      1      6 0.06710000    -0.804909      1.887919     -0.531580
     7      1      7 0.09470000    -0.535603      0.113543      1.957208
     8      1      8 0.09480000    -1.995216      0.999471      1.473578
     9      1      9 0.09480000    -0.535760      1.885383      1.957687

Bonds 

     1      1      2      1
     2      2      3      2
     3      3      4      1
     4      4      5      2
     5      5      6      2
     6      6      7      3
     7      7      8      3
     8      8      9      3

Angles 

     1      1      1      2      3
     2      2      2      1      4
     3      3      1      2      5
     4      4      1      2      6
     5      5      2      3      7
     6      6      2      3      8
     7      7      2      3      9
     8      8      8      3      9
     9      9      5      2      6
    10     10      7      3      8
    11     11      3      2      5
    12     12      3      2      6
    13     13      7      3      9

Dihedrals

     1      1      4      1      2      3 
     2      2      7      3      2      1 
     3      3      7      3      2      5 
     4      4      8      3      2      1 
     5      5      9      3      2      1 
     6      6      7      3      2      6 
     7      7      8      3      2      5 
     8      8      9      3      2      6 
     9      9      9      3      2      5 
    10     10      5      2      1      4 
    11     11      6      2      1      4 
    12     12      8      3      2      6 

Impropers

     1      1      2      1      3      5 
     2      2      2      1      3      6 
     3      3      3      2      7      8 
     4      4      3      9      2      7 

