LAMMPS data file Created by LigParGen - (Written by Leela S. Dodda)

      10 atoms
       9 bonds
      14 angles
      15 dihedrals
       4 impropers
 
      10 atom types
       9 bond types
      14 angle types
      15 dihedral types
       4 improper types
 
   -1.003830    48.996170 xlo xhi
   -0.142210    49.857790 ylo yhi
   -1.023130    48.976870 zlo zhi

Masses

       1     12.011  
       2     12.011  
       3     15.999  
       4     15.999  
       5      1.008  
       6      1.008  
       7      1.008  
       8      1.008  
       9      1.008  
      10      1.008  

Pair Coeffs 

       1      0.066  3.5000000 
       2      0.066  3.5000000 
       3      0.170  3.1200000 
       4      0.170  3.1200000 
       5      0.030  2.5000000 
       6      0.030  2.5000000 
       7      0.030  2.5000000 
       8      0.030  2.5000000 
       9      0.000  0.0000000 
      10      0.000  0.0000000 

Bond Coeffs 

       1   268.0000     1.5290 
       2   320.0000     1.4100 
       3   320.0000     1.4100 
       4   340.0000     1.0900 
       5   340.0000     1.0900 
       6   340.0000     1.0900 
       7   340.0000     1.0900 
       8   553.0000     0.9450 
       9   553.0000     0.9450 

Angle Coeffs 

       1     50.000    109.500
       2     50.000    109.500
       3     37.500    110.700
       4     37.500    110.700
       5     37.500    110.700
       6     37.500    110.700
       7     55.000    108.500
       8     55.000    108.500
       9     35.000    109.500
      10     33.000    107.800
      11     35.000    109.500
      12     35.000    109.500
      13     35.000    109.500
      14     33.000    107.800

Dihedral Coeffs  

       1      9.508      0.000      0.000      0.000 
       2     -0.356     -0.174      0.492      0.000 
       3     -0.356     -0.174      0.492      0.000 
       4      0.000      0.000      0.468      0.000 
       5      0.000      0.000      0.300      0.000 
       6      0.000      0.000      0.352      0.000 
       7      0.000      0.000      0.352      0.000 
       8      0.000      0.000      0.352      0.000 
       9      0.000      0.000      0.300      0.000 
      10      0.000      0.000      0.300      0.000 
      11      0.000      0.000      0.468      0.000 
      12      0.000      0.000      0.352      0.000 
      13      0.000      0.000      0.300      0.000 
      14      0.000      0.000      0.468      0.000 
      15      0.000      0.000      0.468      0.000 

Improper Coeffs 

       1      0.000      -1       2 
       2      0.000      -1       2 
       3      0.000      -1       2 
       4      0.000      -1       2 

Atoms 

     1      1      1 -0.03290000    1.000  1.00000  0.00000
     2      1      2 -0.03290000   -0.523  1.00000  0.00000
     3      1      3 -0.58960000   -1.004  1.00000  1.34334
     4      1      4 -0.58950000    1.481 -0.14221  0.70707
     5      1      5 0.10630000    1.394  1.89376  0.49437
     6      1      6 0.10630000    1.384  0.96181 -1.02313
     7      1      7 0.10630000   -0.917  0.10870 -0.49868
     8      1      8 0.10630000   -0.907  1.89004 -0.50605
     9      1      9 0.40980000   -0.907  0.08514  1.66284
    10      1     10 0.40990000    1.383  0.06697  1.65334

Bonds 

     1      1      2      1
     2      2      3      2
     3      3      4      1
     4      4      5      1
     5      5      6      1
     6      6      7      2
     7      7      8      2
     8      8      9      3
     9      9     10      4

Angles 

     1      1      1      2      3
     2      2      2      1      4
     3      3      2      1      5
     4      4      2      1      6
     5      5      1      2      7
     6      6      1      2      8
     7      7      2      3      9
     8      8      1      4     10
     9      9      4      1      5
    10     10      5      1      6
    11     11      3      2      7
    12     12      3      2      8
    13     13      4      1      6
    14     14      7      2      8

Dihedrals

     1      1      4      1      2      3 
     2      2      9      3      2      1 
     3      3     10      4      1      2 
     4      4      5      1      2      3 
     5      5      8      2      1      6 
     6      6     10      4      1      5 
     7      7      9      3      2      8 
     8      8      9      3      2      7 
     9      9      7      2      1      5 
    10     10      7      2      1      6 
    11     11      8      2      1      4 
    12     12     10      4      1      6 
    13     13      8      2      1      5 
    14     14      6      1      2      3 
    15     15      7      2      1      4 

Impropers

     1      1      1      2      4      5 
     2      2      1      2      4      6 
     3      3      2      1      3      7 
     4      4      2      1      3      8 

