LAMMPS data file Created by LigParGen - (Written by Leela S. Dodda)

      61 atoms
      61 bonds
     112 angles
     149 dihedrals
      36 impropers
 
      61 atom types
      61 bond types
     112 angle types
     149 dihedral types
      36 improper types
 
   -8.447750    41.552250 xlo xhi
    0.075630    50.075630 ylo yhi
   -1.024620    48.975380 zlo zhi

Masses

       1     12.011  
       2     12.011  
       3     12.011  
       4     12.011  
       5     12.011  
       6     12.011  
       7     12.011  
       8     12.011  
       9     12.011  
      10     12.011  
      11     12.011  
      12     12.011  
      13     12.011  
      14     15.999  
      15     12.011  
      16     12.011  
      17     15.999  
      18     12.011  
      19     12.011  
      20     15.999  
      21     12.011  
      22     12.011  
      23     15.999  
      24     12.011  
      25     12.011  
      26      1.008  
      27      1.008  
      28      1.008  
      29      1.008  
      30      1.008  
      31      1.008  
      32      1.008  
      33      1.008  
      34      1.008  
      35      1.008  
      36      1.008  
      37      1.008  
      38      1.008  
      39      1.008  
      40      1.008  
      41      1.008  
      42      1.008  
      43      1.008  
      44      1.008  
      45      1.008  
      46      1.008  
      47      1.008  
      48      1.008  
      49      1.008  
      50      1.008  
      51      1.008  
      52      1.008  
      53      1.008  
      54      1.008  
      55      1.008  
      56      1.008  
      57      1.008  
      58      1.008  
      59      1.008  
      60      1.008  
      61      1.008  

Pair Coeffs 

       1      0.066  3.5000000 
       2      0.066  3.5000000 
       3      0.066  3.5000000 
       4      0.066  3.5000000 
       5      0.066  3.5000000 
       6      0.066  3.5000000 
       7      0.066  3.5000000 
       8      0.066  3.5000000 
       9      0.066  3.5000000 
      10      0.070  3.5500000 
      11      0.070  3.5500000 
      12      0.070  3.5500000 
      13      0.070  3.5500000 
      14      0.140  2.9000000 
      15      0.066  3.5000000 
      16      0.066  3.5000000 
      17      0.140  2.9000000 
      18      0.066  3.5000000 
      19      0.066  3.5000000 
      20      0.140  2.9000000 
      21      0.066  3.5000000 
      22      0.066  3.5000000 
      23      0.170  3.1200000 
      24      0.070  3.5500000 
      25      0.070  3.5500000 
      26      0.030  2.5000000 
      27      0.030  2.5000000 
      28      0.030  2.5000000 
      29      0.030  2.5000000 
      30      0.030  2.5000000 
      31      0.030  2.5000000 
      32      0.030  2.5000000 
      33      0.030  2.5000000 
      34      0.030  2.5000000 
      35      0.030  2.5000000 
      36      0.030  2.5000000 
      37      0.030  2.5000000 
      38      0.030  2.5000000 
      39      0.030  2.5000000 
      40      0.030  2.5000000 
      41      0.030  2.5000000 
      42      0.030  2.5000000 
      43      0.030  2.5000000 
      44      0.030  2.5000000 
      45      0.030  2.4200000 
      46      0.030  2.4200000 
      47      0.030  2.5000000 
      48      0.030  2.5000000 
      49      0.030  2.5000000 
      50      0.030  2.5000000 
      51      0.030  2.5000000 
      52      0.030  2.5000000 
      53      0.030  2.5000000 
      54      0.030  2.5000000 
      55      0.030  2.5000000 
      56      0.030  2.5000000 
      57      0.030  2.5000000 
      58      0.030  2.5000000 
      59      0.000  0.0000000 
      60      0.030  2.4200000 
      61      0.030  2.4200000 

Bond Coeffs 

       1   268.0000     1.5290 
       2   268.0000     1.5290 
       3   268.0000     1.5290 
       4   268.0000     1.5290 
       5   268.0000     1.5290 
       6   268.0000     1.5290 
       7   268.0000     1.5290 
       8   268.0000     1.5290 
       9   317.0000     1.5100 
      10   469.0000     1.4000 
      11   469.0000     1.4000 
      12   469.0000     1.4000 
      13   450.0000     1.3640 
      14   320.0000     1.4100 
      15   268.0000     1.5290 
      16   320.0000     1.4100 
      17   320.0000     1.4100 
      18   268.0000     1.5290 
      19   320.0000     1.4100 
      20   320.0000     1.4100 
      21   268.0000     1.5290 
      22   320.0000     1.4100 
      23   469.0000     1.4000 
      24   469.0000     1.4000 
      25   340.0000     1.0900 
      26   340.0000     1.0900 
      27   340.0000     1.0900 
      28   340.0000     1.0900 
      29   340.0000     1.0900 
      30   340.0000     1.0900 
      31   340.0000     1.0900 
      32   340.0000     1.0900 
      33   340.0000     1.0900 
      34   340.0000     1.0900 
      35   340.0000     1.0900 
      36   340.0000     1.0900 
      37   340.0000     1.0900 
      38   340.0000     1.0900 
      39   340.0000     1.0900 
      40   340.0000     1.0900 
      41   340.0000     1.0900 
      42   340.0000     1.0900 
      43   340.0000     1.0900 
      44   367.0000     1.0800 
      45   367.0000     1.0800 
      46   340.0000     1.0900 
      47   340.0000     1.0900 
      48   340.0000     1.0900 
      49   340.0000     1.0900 
      50   340.0000     1.0900 
      51   340.0000     1.0900 
      52   340.0000     1.0900 
      53   340.0000     1.0900 
      54   340.0000     1.0900 
      55   340.0000     1.0900 
      56   340.0000     1.0900 
      57   340.0000     1.0900 
      58   553.0000     0.9450 
      59   367.0000     1.0800 
      60   367.0000     1.0800 
      61   469.0000     1.4000 

Angle Coeffs 

       1     58.350    112.700
       2     58.350    112.700
       3     58.350    112.700
       4     58.350    112.700
       5     58.350    112.700
       6     58.350    112.700
       7     58.350    112.700
       8     63.000    114.000
       9     70.000    120.000
      10     63.000    120.000
      11     63.000    120.000
      12     70.000    120.000
      13     75.000    111.000
      14     50.000    109.500
      15     50.000    109.500
      16     60.000    109.500
      17     50.000    109.500
      18     50.000    109.500
      19     60.000    109.500
      20     50.000    109.500
      21     50.000    109.500
      22     63.000    120.000
      23     70.000    120.000
      24     37.500    110.700
      25     37.500    110.700
      26     37.500    110.700
      27     37.500    110.700
      28     37.500    110.700
      29     37.500    110.700
      30     37.500    110.700
      31     37.500    110.700
      32     37.500    110.700
      33     37.500    110.700
      34     37.500    110.700
      35     37.500    110.700
      36     37.500    110.700
      37     37.500    110.700
      38     37.500    110.700
      39     37.500    110.700
      40     37.500    110.700
      41     37.500    110.700
      42     37.500    110.700
      43     35.000    120.000
      44     35.000    120.000
      45     35.000    109.500
      46     35.000    109.500
      47     37.500    110.700
      48     37.500    110.700
      49     35.000    109.500
      50     35.000    109.500
      51     37.500    110.700
      52     37.500    110.700
      53     35.000    109.500
      54     35.000    109.500
      55     37.500    110.700
      56     37.500    110.700
      57     55.000    108.500
      58     35.000    120.000
      59     35.000    120.000
      60     33.000    107.800
      61     33.000    107.800
      62     37.500    110.700
      63     37.500    110.700
      64     35.000    109.500
      65     33.000    107.800
      66     33.000    107.800
      67     33.000    107.800
      68     37.500    110.700
      69     37.500    110.700
      70     63.000    120.000
      71     63.000    120.000
      72     35.000    120.000
      73     33.000    107.800
      74     37.500    110.700
      75     70.000    120.000
      76     35.000    109.500
      77     37.500    110.700
      78     35.000    109.500
      79     37.500    110.700
      80     33.000    107.800
      81     37.500    110.700
      82     37.500    110.700
      83     33.000    107.800
      84     37.500    110.700
      85     33.000    107.800
      86     37.500    110.700
      87     33.000    107.800
      88     33.000    107.800
      89     35.000    120.000
      90     37.500    110.700
      91     33.000    107.800
      92     35.000    109.500
      93     37.500    110.700
      94     35.000    109.500
      95     37.500    110.700
      96     35.000    109.500
      97     37.500    110.700
      98     33.000    107.800
      99     33.000    107.800
     100     37.500    110.700
     101     37.500    110.700
     102     37.500    110.700
     103     33.000    107.800
     104     33.000    107.800
     105     35.000    120.000
     106     35.000    109.500
     107     63.000    120.000
     108     37.500    110.700
     109     35.000    120.000
     110     33.000    107.800
     111     37.500    110.700
     112     35.000    109.500

Dihedral Coeffs  

       1      1.300     -0.200      0.200      0.000 
       2      1.300     -0.200      0.200      0.000 
       3      1.300     -0.200      0.200      0.000 
       4      1.300     -0.200      0.200      0.000 
       5      1.300     -0.200      0.200      0.000 
       6      1.300     -0.200      0.200      0.000 
       7      1.300     -0.200      0.200      0.000 
       8      0.000      0.000      0.000      0.000 
       9      0.000      7.250      0.000      0.000 
      10      0.000      7.250      0.000      0.000 
      11      0.000      7.250      0.000      0.000 
      12      0.000      3.000      0.000      0.000 
      13      0.650     -0.250      0.670      0.000 
      14     -0.550      0.000      0.000      0.000 
      15      0.650     -0.250      0.670      0.000 
      16      0.650     -0.250      0.670      0.000 
      17     -0.550      0.000      0.000      0.000 
      18      0.650     -0.250      0.670      0.000 
      19      0.650     -0.250      0.670      0.000 
      20      4.319      0.000      0.000      0.000 
      21      0.000      0.000      0.300      0.000 
      22     -0.356     -0.174      0.492      0.000 
      23      0.000      0.000      0.300      0.000 
      24      0.000      0.000      0.300      0.000 
      25      0.000      0.000      0.300      0.000 
      26      0.000      0.000      0.760      0.000 
      27      0.000      0.000      0.300      0.000 
      28      0.000      0.000      0.462      0.000 
      29      0.000      0.000      0.300      0.000 
      30      0.000      0.000      0.000      0.000 
      31      0.000      0.000      0.000      0.000 
      32      0.000      7.250      0.000      0.000 
      33      0.000      0.000      0.468      0.000 
      34      0.000      0.000      0.300      0.000 
      35      0.000      0.000      0.300      0.000 
      36      0.000      0.000      0.468      0.000 
      37      0.000      0.000      0.300      0.000 
      38      0.000      0.000      0.300      0.000 
      39      0.000      7.250      0.000      0.000 
      40      0.000      0.000      0.300      0.000 
      41      0.000      0.000      0.300      0.000 
      42      0.000      7.250      0.000      0.000 
      43      0.000      0.000      0.300      0.000 
      44      0.000      0.000      0.760      0.000 
      45      0.000      0.000      0.300      0.000 
      46      0.000      0.000      0.300      0.000 
      47      0.000      0.000      0.300      0.000 
      48      0.000      0.000      0.352      0.000 
      49      0.000      7.250      0.000      0.000 
      50      0.000      0.000      0.300      0.000 
      51      0.000      0.000      0.468      0.000 
      52      0.000      0.000      0.300      0.000 
      53      0.000      0.000      0.760      0.000 
      54      0.000      0.000      0.300      0.000 
      55      0.000      0.000      0.300      0.000 
      56      0.000      0.000      0.000      0.000 
      57      0.000      0.000      0.760      0.000 
      58      0.000      0.000      0.300      0.000 
      59      0.000      0.000      0.300      0.000 
      60      0.000      0.000      0.760      0.000 
      61      0.000      0.000      0.300      0.000 
      62      0.000      0.000      0.300      0.000 
      63      0.000      7.250      0.000      0.000 
      64      0.000      0.000      0.000      0.000 
      65      0.000      0.000      0.300      0.000 
      66      0.000      0.000      0.300      0.000 
      67      0.000      0.000      0.300      0.000 
      68      0.000      7.250      0.000      0.000 
      69      0.000      0.000      0.760      0.000 
      70      0.000      0.000      0.300      0.000 
      71      0.000      0.000      0.300      0.000 
      72      0.000      0.000      0.300      0.000 
      73      0.000      0.000      0.300      0.000 
      74      0.000      0.000      0.300      0.000 
      75      0.000      0.000      0.300      0.000 
      76      0.000      0.000      0.300      0.000 
      77      0.000      0.000      0.300      0.000 
      78      0.000      0.000      0.300      0.000 
      79      0.000      0.000      0.300      0.000 
      80      0.000      0.000      0.468      0.000 
      81      0.000      0.000      0.300      0.000 
      82      0.000      0.000      0.468      0.000 
      83      0.000      7.250      0.000      0.000 
      84      0.000      7.250      0.000      0.000 
      85      0.000      0.000      0.468      0.000 
      86      0.000      7.250      0.000      0.000 
      87      0.000      7.250      0.000      0.000 
      88      0.000      0.000      0.300      0.000 
      89      0.000      7.250      0.000      0.000 
      90      0.000      0.000      0.468      0.000 
      91      0.000      0.000      0.300      0.000 
      92      0.000      0.000      0.468      0.000 
      93      0.000      0.000      0.300      0.000 
      94      0.000      0.000      0.300      0.000 
      95      0.000      0.000      0.000      0.000 
      96      0.000      0.000      0.300      0.000 
      97      0.000      0.000      0.300      0.000 
      98      0.000      0.000      0.300      0.000 
      99      0.000      0.000      0.300      0.000 
     100      0.000      0.000      0.300      0.000 
     101      0.000      0.000      0.300      0.000 
     102      0.000      0.000      0.300      0.000 
     103      0.000      0.000      0.468      0.000 
     104      0.000      0.000      0.352      0.000 
     105      0.000      0.000      0.760      0.000 
     106      0.000      3.000      0.000      0.000 
     107      0.000      0.000      0.300      0.000 
     108      0.000      0.000      0.468      0.000 
     109      0.000      0.000      0.300      0.000 
     110      0.000      0.000      0.300      0.000 
     111      0.000      0.000      0.300      0.000 
     112      0.000      0.000      0.300      0.000 
     113      0.000      0.000      0.300      0.000 
     114      0.000      0.000      0.300      0.000 
     115      0.000      7.250      0.000      0.000 
     116      0.000      0.000      0.300      0.000 
     117      0.000      0.000      0.468      0.000 
     118      0.000      0.000      0.760      0.000 
     119      0.000      0.000      0.300      0.000 
     120      0.000      7.250      0.000      0.000 
     121      0.000      7.250      0.000      0.000 
     122      0.000      0.000      0.300      0.000 
     123      0.000      0.000      0.300      0.000 
     124      0.000      0.000      0.300      0.000 
     125      0.000      7.250      0.000      0.000 
     126      0.000      0.000      0.300      0.000 
     127      0.000      0.000      0.760      0.000 
     128      0.000      0.000      0.300      0.000 
     129      0.000      7.250      0.000      0.000 
     130      0.000      0.000      0.300      0.000 
     131      0.000      0.000      0.300      0.000 
     132      0.000      0.000      0.300      0.000 
     133      0.000      0.000      0.300      0.000 
     134      0.000      7.250      0.000      0.000 
     135      0.000      0.000      0.462      0.000 
     136      0.000      0.000      0.300      0.000 
     137      0.000      0.000      0.468      0.000 
     138      0.000      0.000      0.300      0.000 
     139      0.000      0.000      0.300      0.000 
     140      0.000      7.250      0.000      0.000 
     141      0.000      7.250      0.000      0.000 
     142      0.000      0.000      0.300      0.000 
     143      0.000      0.000      0.300      0.000 
     144      0.000      0.000      0.760      0.000 
     145      0.000      7.250      0.000      0.000 
     146      0.000      0.000      0.300      0.000 
     147      0.000      7.250      0.000      0.000 
     148      0.000      0.000      0.300      0.000 
     149      0.000      0.000      0.300      0.000 

Improper Coeffs 

       1      2.500      -1       2 
       2      2.500      -1       2 
       3      0.000      -1       2 
       4      0.000      -1       2 
       5      0.000      -1       2 
       6      0.000      -1       2 
       7      0.000      -1       2 
       8      0.000      -1       2 
       9      0.000      -1       2 
      10      0.000      -1       2 
      11      0.000      -1       2 
      12      0.000      -1       2 
      13      0.000      -1       2 
      14      0.000      -1       2 
      15      0.000      -1       2 
      16      0.000      -1       2 
      17      0.000      -1       2 
      18      0.000      -1       2 
      19      0.000      -1       2 
      20      0.000      -1       2 
      21      2.500      -1       2 
      22      2.500      -1       2 
      23      0.000      -1       2 
      24      0.000      -1       2 
      25      0.000      -1       2 
      26      0.000      -1       2 
      27      0.000      -1       2 
      28      0.000      -1       2 
      29      0.000      -1       2 
      30      0.000      -1       2 
      31      0.000      -1       2 
      32      0.000      -1       2 
      33      0.000      -1       2 
      34      0.000      -1       2 
      35      2.500      -1       2 
      36      2.500      -1       2 

Atoms 

     1      1      1 -0.23910000    1.000  1.00000  0.00000
     2      1      2 -0.17940000   -0.520  1.00000  0.00000
     3      1      3 -0.17820000   -1.073  1.00000  1.42313
     4      1      4 -0.17930000   -2.601  0.99820  1.42313
     5      1      5 -0.17890000   -3.147  0.99641  2.85033
     6      1      6 -0.17940000   -4.675  0.99280  2.85361
     7      1      7 -0.17920000   -5.222  0.98920  4.27981
     8      1      8 -0.17150000   -6.754  0.98379  4.27817
     9      1      9 -0.12970000   -7.354  0.98181  5.69275
    10      1     10 -0.11450000   -6.988  2.21237  6.48559
    11      1     11 -0.10780000   -7.328  3.47222  5.98730
    12      1     12 -0.22890000   -6.911  4.62571  6.64165
    13      1     13 0.12850000   -6.144  4.54626  7.80807
    14      1     14 -0.30040000   -5.645  5.63085  8.49059
    15      1     15 -0.00450000   -5.906  6.88532  7.86006
    16      1     16 0.00930000   -5.280  8.04414  8.61821
    17      1     17 -0.38790000   -5.609  9.23607  7.89759
    18      1     18 0.01000000   -5.075 10.40100  8.51527
    19      1     19 0.00800000   -5.467 11.62631  7.69543
    20      1     20 -0.39960000   -4.932 12.79484  8.31741
    21      1     21 -0.03970000   -5.270 13.97773  7.58370
    22      1     22 0.00800000   -4.667 15.17467  8.31106
    23      1     23 -0.58540000   -3.248 15.04174  8.37284
    24      1     24 -0.17690000   -5.849  3.28984  8.33821
    25      1     25 -0.10850000   -6.268  2.12848  7.68400
    26      1     26 0.08070000    1.382  0.99870 -1.02462
    27      1     27 0.08070000    1.389  0.11192  0.51050
    28      1     28 0.08070000    1.389  1.88717  0.50972
    29      1     29 0.08810000   -0.879  0.11636 -0.54117
    30      1     30 0.08810000   -0.879  1.88277 -0.54206
    31      1     31 0.08980000   -0.708  1.88417  1.95936
    32      1     32 0.08980000   -0.704  0.11819  1.96107
    33      1     33 0.08890000   -2.969  0.11483  0.88709
    34      1     34 0.08890000   -2.971  1.88111  0.88737
    35      1     35 0.09040000   -2.779  1.87965  3.38625
    36      1     36 0.09040000   -2.776  0.11350  3.38474
    37      1     37 0.08810000   -5.043  0.11172  2.31478
    38      1     38 0.08810000   -5.043  1.87907  2.32156
    39      1     39 0.09460000   -4.844  1.87087  4.80471
    40      1     40 0.09460000   -4.854  0.10672  4.81866
    41      1     41 0.08850000   -7.113  0.09499  3.74570
    42      1     42 0.08850000   -7.117  1.84997  3.71044
    43      1     43 0.09680000   -7.038  0.07563  6.22237
    44      1     44 0.09680000   -8.448  0.93656  5.61790
    45      1     45 0.15220000   -7.887  3.57097  5.05992
    46      1     46 0.15450000   -7.207  5.57123  6.20179
    47      1     47 0.10280000   -6.988  7.06187  7.81103
    48      1     48 0.10280000   -5.497  6.89110  6.84068
    49      1     49 0.09500000   -4.193  7.92025  8.67492
    50      1     50 0.09500000   -5.679  8.09174  9.63772
    51      1     51 0.09130000   -3.984 10.32581  8.57273
    52      1     52 0.09130000   -5.466 10.49577  9.53482
    53      1     53 0.09200000   -6.560 11.70077  7.63369
    54      1     54 0.09200000   -5.080 11.53043  6.67330
    55      1     55 0.09440000   -6.359 14.08193  7.52832
    56      1     56 0.09440000   -4.850 13.89984  6.57476
    57      1     57 0.10680000   -5.037 15.23203  9.33939
    58      1     58 0.10680000   -4.904 16.10675  7.79113
    59      1     59 0.42320000   -3.090 14.15114  8.74176
    60      1     60 0.16410000   -5.287  3.21048  9.26543
    61      1     61 0.15380000   -6.030  1.15830  8.11360

Bonds 

     1      1      2      1
     2      2      3      2
     3      3      4      3
     4      4      5      4
     5      5      6      5
     6      6      7      6
     7      7      8      7
     8      8      9      8
     9      9     10      9
    10     10     11     10
    11     11     12     11
    12     12     13     12
    13     13     14     13
    14     14     15     14
    15     15     16     15
    16     16     17     16
    17     17     18     17
    18     18     19     18
    19     19     20     19
    20     20     21     20
    21     21     22     21
    22     22     23     22
    23     23     24     13
    24     24     25     10
    25     25     26      1
    26     26     27      1
    27     27     28      1
    28     28     29      2
    29     29     30      2
    30     30     31      3
    31     31     32      3
    32     32     33      4
    33     33     34      4
    34     34     35      5
    35     35     36      5
    36     36     37      6
    37     37     38      6
    38     38     39      7
    39     39     40      7
    40     40     41      8
    41     41     42      8
    42     42     43      9
    43     43     44      9
    44     44     45     11
    45     45     46     12
    46     46     47     15
    47     47     48     15
    48     48     49     16
    49     49     50     16
    50     50     51     18
    51     51     52     18
    52     52     53     19
    53     53     54     19
    54     54     55     21
    55     55     56     21
    56     56     57     22
    57     57     58     22
    58     58     59     23
    59     59     60     24
    60     60     61     25
    61     61     25     24

Angles 

     1      1      1      2      3
     2      2      2      3      4
     3      3      3      4      5
     4      4      4      5      6
     5      5      5      6      7
     6      6      6      7      8
     7      7      7      8      9
     8      8      8      9     10
     9      9      9     10     11
    10     10     10     11     12
    11     11     11     12     13
    12     12     12     13     14
    13     13     13     14     15
    14     14     14     15     16
    15     15     15     16     17
    16     16     16     17     18
    17     17     17     18     19
    18     18     18     19     20
    19     19     19     20     21
    20     20     20     21     22
    21     21     21     22     23
    22     22     12     13     24
    23     23      9     10     25
    24     24      2      1     26
    25     25      2      1     27
    26     26      2      1     28
    27     27      1      2     29
    28     28      1      2     30
    29     29      2      3     31
    30     30      2      3     32
    31     31      3      4     33
    32     32      3      4     34
    33     33      4      5     35
    34     34      4      5     36
    35     35      5      6     37
    36     36      5      6     38
    37     37      6      7     39
    38     38      6      7     40
    39     39      7      8     41
    40     40      7      8     42
    41     41      8      9     43
    42     42      8      9     44
    43     43     10     11     45
    44     44     11     12     46
    45     45     14     15     47
    46     46     14     15     48
    47     47     15     16     49
    48     48     15     16     50
    49     49     17     18     51
    50     50     17     18     52
    51     51     18     19     53
    52     52     18     19     54
    53     53     20     21     55
    54     54     20     21     56
    55     55     21     22     57
    56     56     21     22     58
    57     57     22     23     59
    58     58     13     24     60
    59     59     10     25     61
    60     60     47     15     48
    61     61     35      5     36
    62     62      7      6     37
    63     63      9      8     42
    64     64     17     16     50
    65     65     51     18     52
    66     66     57     22     58
    67     67     53     19     54
    68     68      9      8     41
    69     69      7      6     38
    70     70     10     25     24
    71     71     13     24     25
    72     72     25     24     60
    73     73     37      6     38
    74     74      4      3     32
    75     75     14     13     24
    76     76     10      9     44
    77     77      8      7     39
    78     78     10      9     43
    79     79     19     18     51
    80     80     55     21     56
    81     81      3      2     29
    82     82      5      4     33
    83     83     29      2     30
    84     84     22     21     56
    85     85     33      4     34
    86     86     16     15     47
    87     87     31      3     32
    88     88     49     16     50
    89     89     13     12     46
    90     90      3      2     30
    91     91     41      8     42
    92     92     20     19     54
    93     93      4      3     31
    94     94     23     22     58
    95     95     19     18     52
    96     96     23     22     57
    97     97      6      5     35
    98     98     39      7     40
    99     99     27      1     28
   100    100     22     21     55
   101    101      8      7     40
   102    102     16     15     48
   103    103     26      1     27
   104    104     26      1     28
   105    105     24     25     61
   106    106     17     16     49
   107    107     11     10     25
   108    108      6      5     36
   109    109     12     11     45
   110    110     43      9     44
   111    111      5      4     34
   112    112     20     19     53

Dihedrals

     1      1      4      3      2      1 
     2      2      5      4      3      2 
     3      3      6      5      4      3 
     4      4      7      6      5      4 
     5      5      8      7      6      5 
     6      6      9      8      7      6 
     7      7     10      9      8      7 
     8      8     11     10      9      8 
     9      9     12     11     10      9 
    10     10     13     12     11     10 
    11     11     14     13     12     11 
    12     12     15     14     13     12 
    13     13     16     15     14     13 
    14     14     17     16     15     14 
    15     15     18     17     16     15 
    16     16     19     18     17     16 
    17     17     20     19     18     17 
    18     18     21     20     19     18 
    19     19     22     21     20     19 
    20     20     23     22     21     20 
    21     21     26      1      2      3 
    22     22     59     23     22     21 
    23     23     50     16     15     48 
    24     24     36      5      6      7 
    25     25     44      9      8      7 
    26     26     47     15     14     13 
    27     27     54     19     18     52 
    28     28     42      8      9     10 
    29     29     38      6      5     35 
    30     30     43      9     10     11 
    31     31     25     10      9      8 
    32     32     46     12     13     24 
    33     33     48     15     16     17 
    34     34     57     22     21     55 
    35     35     43      9      8     42 
    36     36     57     22     21     20 
    37     37     34      4      3      2 
    38     38     44      9      8     41 
    39     39     25     24     13     12 
    40     40     42      8      7      6 
    41     41     35      5      4      3 
    42     42     24     25     10     11 
    43     43     33      4      3     31 
    44     44     48     15     14     13 
    45     45     39      7      8      9 
    46     46     41      8      7     40 
    47     47     42      8      7     39 
    48     48     59     23     22     58 
    49     49     45     11     10     25 
    50     50     32      3      4      5 