LAMMPS data file Created by LigParGen - (Written by Leela S. Dodda)

      19 atoms
      18 bonds
      29 angles
      31 dihedrals
       9 impropers
 
      19 atom types
      18 bond types
      29 angle types
      31 dihedral types
       9 improper types
 
   -4.147200    45.852800 xlo xhi
   -1.051250    48.948750 ylo yhi
   -4.232670    45.767330 zlo zhi

Masses

       1     12.011  
       2     12.011  
       3     12.011  
       4     12.011  
       5     15.999  
       6     15.999  
       7     12.011  
       8     12.011  
       9     15.999  
      10      1.008  
      11      1.008  
      12      1.008  
      13      1.008  
      14      1.008  
      15      1.008  
      16      1.008  
      17      1.008  
      18      1.008  
      19      1.008  

Pair Coeffs 

       1      0.076  3.5500000 
       2      0.076  3.5500000 
       3      0.066  3.5000000 
       4      0.070  3.5500000 
       5      0.210  2.9600000 
       6      0.140  2.9000000 
       7      0.066  3.5000000 
       8      0.066  3.5000000 
       9      0.170  3.1200000 
      10      0.030  2.5000000 
      11      0.030  2.5000000 
      12      0.030  2.5000000 
      13      0.030  2.5000000 
      14      0.030  2.5000000 
      15      0.030  2.5000000 
      16      0.030  2.5000000 
      17      0.030  2.5000000 
      18      0.030  2.5000000 
      19      0.000  0.0000000 

Bond Coeffs 

       1   549.0000     1.3400 
       2   317.0000     1.5100 
       3   410.0000     1.4440 
       4   570.0000     1.2290 
       5   214.0000     1.3270 
       6   320.0000     1.4100 
       7   268.0000     1.5290 
       8   320.0000     1.4100 
       9   340.0000     1.0800 
      10   340.0000     1.0800 
      11   340.0000     1.0900 
      12   340.0000     1.0900 
      13   340.0000     1.0900 
      14   340.0000     1.0900 
      15   340.0000     1.0900 
      16   340.0000     1.0900 
      17   340.0000     1.0900 
      18   553.0000     0.9450 

Angle Coeffs 

       1     70.000    124.000
       2     85.000    120.700
       3     80.000    125.300
       4     81.000    111.400
       5     83.000    116.900
       6     50.000    109.500
       7     50.000    109.500
       8     35.000    120.000
       9     35.000    120.000
      10     35.000    109.500
      11     35.000    109.500
      12     35.000    109.500
      13     35.000    109.500
      14     35.000    109.500
      15     37.500    110.700
      16     37.500    110.700
      17     55.000    108.500
      18     83.000    123.400
      19     37.500    110.700
      20     33.000    107.800
      21     35.000    109.500
      22     33.000    107.800
      23     70.000    119.700
      24     33.000    107.800
      25     35.000    117.000
      26     33.000    107.800
      27     33.000    107.800
      28     35.000    109.500
      29     37.500    110.700

Dihedral Coeffs  

       1      2.500      6.000      0.000      0.000 
       2      4.669      5.124      0.000      0.000 
       3     -1.220     -0.126      0.422      0.000 
       4      4.319      0.000      0.000      0.000 
       5      0.000     14.000      0.000      0.000 
       6      0.000      0.000     -0.372      0.000 
       7     -0.356     -0.174      0.492      0.000 
       8      0.000     14.000      0.000      0.000 
       9      0.000     14.000      0.000      0.000 
      10      0.000      0.000      0.468      0.000 
      11      0.900      0.230     -0.505      0.000 
      12      0.000      0.000      0.352      0.000 
      13      0.000      0.000      0.300      0.000 
      14      0.000      0.000      0.300      0.000 
      15      0.000     14.000      0.000      0.000 
      16      0.000      0.000      0.468      0.000 
      17      0.000      0.000     -0.372      0.000 
      18      0.000      0.000     -0.372      0.000 
      19      0.000      0.000     -0.372      0.000 
      20      3.200     -3.000      0.000      0.000 
      21      0.000      0.000      0.352      0.000 
      22      0.000      0.000      0.468      0.000 
      23      0.000      0.000      0.300      0.000 
      24      0.000      0.000      0.468      0.000 
      25      0.900      0.230     -0.505      0.000 
      26      0.000      0.000      0.300      0.000 
      27      0.000      0.000     -0.372      0.000 
      28      0.000      0.000     -0.372      0.000 
      29      0.000      0.000      0.198      0.000 
      30      0.000      5.124      0.000      0.000 
      31      0.000      0.000      0.198      0.000 

Improper Coeffs 

       1      2.500      -1       2 
       2     10.500      -1       2 
       3      2.500      -1       2 
       4      0.000      -1       2 
       5      0.000      -1       2 
       6      0.000      -1       2 
       7      0.000      -1       2 
       8      0.000      -1       2 
       9      0.000      -1       2 

Atoms 

     1      1      1 -0.16100000    1.000  1.00000  0.00000
     2      1      2 -0.16830000   -0.344  1.00000  0.00000
     3      1      3 -0.18890000   -1.148  1.00000  1.26225
     4      1      4 0.47690000   -1.034  1.08510 -1.31762
     5      1      5 -0.45210000   -0.462  1.23245 -2.38774
     6      1      6 -0.35710000   -2.380  1.05779 -1.15015
     7      1      7 -0.03860000   -3.148  1.51749 -2.27830
     8      1      8 -0.02380000   -3.257  0.48220 -3.39462
     9      1      9 -0.58330000   -3.957 -0.67399 -2.93760
    10      1     10 0.14910000    1.568  1.00000  0.92486
    11      1     11 0.14910000    1.570  1.00117 -0.92618
    12      1     12 0.09960000   -0.507  1.04551  2.15015
    13      1     13 0.09960000   -1.753  0.09067  1.33687
    14      1     14 0.09960000   -1.811  1.87086  1.29858
    15      1     15 0.12510000   -2.719  2.45482 -2.65087
    16      1     16 0.12510000   -4.147  1.74211 -1.88851
    17      1     17 0.11780000   -2.280  0.15969 -3.76469
    18      1     18 0.11780000   -3.821  0.90383 -4.23267
    19      1     19 0.41350000   -3.423 -1.05125 -2.21732

Bonds 

     1      1      2      1
     2      2      3      2
     3      3      4      2
     4      4      5      4
     5      5      6      4
     6      6      7      6
     7      7      8      7
     8      8      9      8
     9      9     10      1
    10     10     11      1
    11     11     12      3
    12     12     13      3
    13     13     14      3
    14     14     15      7
    15     15     16      7
    16     16     17      8
    17     17     18      8
    18     18     19      9

Angles 

     1      1      1      2      3
     2      2      1      2      4
     3      3      2      4      5
     4      4      2      4      6
     5      5      4      6      7
     6      6      6      7      8
     7      7      7      8      9
     8      8      2      1     10
     9      9      2      1     11
    10     10      2      3     12
    11     11      2      3     13
    12     12      2      3     14
    13     13      6      7     15
    14     14      6      7     16
    15     15      7      8     17
    16     16      7      8     18
    17     17      8      9     19
    18     18      5      4      6
    19     19      8      7     15
    20     20     17      8     18
    21     21      9      8     18
    22     22     15      7     16
    23     23      3      2      4
    24     24     13      3     14
    25     25     10      1     11
    26     26     12      3     14
    27     27     12      3     13
    28     28      9      8     17
    29     29      8      7     16

Dihedrals

     1      1      5      4      2      1 
     2      2      7      6      4      2 
     3      3      8      7      6      4 
     4      4      9      8      7      6 
     5      5     10      1      2      3 
     6      6     12      3      2      1 
     7      7     19      9      8      7 
     8      8     10      1      2      4 
     9      9     11      1      2      3 
    10     10     16      7      8      9 
    11     11      5      4      2      3 
    12     12     19      9      8     18 
    13     13     18      8      7     15 
    14     14     17      8      7     16 
    15     15     11      1      2      4 
    16     16     17      8      7      6 
    17     17     12      3      2      4 
    18     18     14      3      2      4 
    19     19     13      3      2      4 
    20     20      6      4      2      1 
    21     21     19      9      8     17 
    22     22     18      8      7      6 
    23     23     17      8      7     15 
    24     24     15      7      8      9 
    25     25      6      4      2      3 
    26     26     18      8      7     16 
    27     27     13      3      2      1 
    28     28     14      3      2      1 
    29     29     16      7      6      4 
    30     30      7      6      4      5 
    31     31     15      7      6      4 

Impropers

     1      1      2      1      3      4 
     2      2      4      2      5      6 
     3      3      1      2     11     10 
     4      4      3      2     12     13 
     5      5      3      2     12     14 
     6      6      7      8     15      6 
     7      7      7      8      6     16 
     8      8      8     17      9      7 
     9      9      8      9     18      7 

