LAMMPS data file. CGCMM style. atom_style molecular generated by VMD/TopoTools v1.7 on Fri Aug 09 14:20:49 -05 2019
 2157 atoms
 2175 bonds
 3931 angles
 5754 dihedrals
 418 impropers
 83 atom types
 105 bond types
 208 angle types
 326 dihedral types
 33 improper types
 -1.216499 -0.216499  xlo xhi
 -1.280500 -0.280500  ylo yhi
 1.021000 2.021000  zlo zhi

# Pair Coeffs
#
# 1  C
# 2  CA
# 3  CB
# 4  CD
# 5  CD1
# 6  CD2
# 7  CE
# 8  CE1
# 9  CE2
# 10  CE3
# 11  CG
# 12  CG1
# 13  CG2
# 14  CH2
# 15  CZ
# 16  CZ2
# 17  CZ3
# 18  H
# 19  H1
# 20  H2
# 21  H3
# 22  HA
# 23  HA2
# 24  HA3
# 25  HB
# 26  HB1
# 27  HB2
# 28  HB3
# 29  HD1
# 30  HD11
# 31  HD12
# 32  HD13
# 33  HD2
# 34  HD21
# 35  HD22
# 36  HD23
# 37  HD3
# 38  HE
# 39  HE1
# 40  HE2
# 41  HE21
# 42  HE22
# 43  HE3
# 44  HG
# 45  HG1
# 46  HG11
# 47  HG12
# 48  HG13
# 49  HG2
# 50  HG21
# 51  HG22
# 52  HG23
# 53  HG3
# 54  HH
# 55  HH11
# 56  HH12
# 57  HH2
# 58  HH21
# 59  HH22
# 60  HZ
# 61  HZ1
# 62  HZ2
# 63  HZ3
# 64  N
# 65  ND1
# 66  ND2
# 67  NE
# 68  NE1
# 69  NE2
# 70  NH1
# 71  NH2
# 72  NZ
# 73  O
# 74  OD1
# 75  OD2
# 76  OE1
# 77  OE2
# 78  OG
# 79  OG1
# 80  OH
# 81  OXT
# 82  SD
# 83  SG

# Bond Coeffs
#
# 1  C-CA
# 2  C-N
# 3  C-O
# 4  C-OXT
# 5  CA-CB
# 6  CA-HA
# 7  CA-HA2
# 8  CA-HA3
# 9  CA-N
# 10  CB-CG
# 11  CB-CG1
# 12  CB-CG2
# 13  CB-HB
# 14  CB-HB1
# 15  CB-HB2
# 16  CB-HB3
# 17  CB-OG
# 18  CB-OG1
# 19  CB-SG
# 20  CD-CE
# 21  CD-CG
# 22  CD-HD2
# 23  CD-HD3
# 24  CD-N
# 25  CD-NE
# 26  CD-NE2
# 27  CD-OE1
# 28  CD-OE2
# 29  CD1-CE1
# 30  CD1-CG
# 31  CD1-CG1
# 32  CD1-HD1
# 33  CD1-HD11
# 34  CD1-HD12
# 35  CD1-HD13
# 36  CD1-NE1
# 37  CD2-CE2
# 38  CD2-CE3
# 39  CD2-CG
# 40  CD2-HD2
# 41  CD2-HD21
# 42  CD2-HD22
# 43  CD2-HD23
# 44  CD2-NE2
# 45  CE-HE1
# 46  CE-HE2
# 47  CE-HE3
# 48  CE-NZ
# 49  CE-SD
# 50  CE1-CZ
# 51  CE1-HE1
# 52  CE1-ND1
# 53  CE1-NE2
# 54  CE2-CZ
# 55  CE2-CZ2
# 56  CE2-HE2
# 57  CE2-NE1
# 58  CE3-CZ3
# 59  CE3-HE3
# 60  CG-HG
# 61  CG-HG2
# 62  CG-HG3
# 63  CG-ND1
# 64  CG-ND2
# 65  CG-OD1
# 66  CG-OD2
# 67  CG-SD
# 68  CG1-HG11
# 69  CG1-HG12
# 70  CG1-HG13
# 71  CG2-HG21
# 72  CG2-HG22
# 73  CG2-HG23
# 74  CH2-CZ2
# 75  CH2-CZ3
# 76  CH2-HH2
# 77  CZ-HZ
# 78  CZ-NE
# 79  CZ-NH1
# 80  CZ-NH2
# 81  CZ-OH
# 82  CZ2-HZ2
# 83  CZ3-HZ3
# 84  H-N
# 85  H1-N
# 86  H2-N
# 87  H3-N
# 88  HD1-ND1
# 89  HD21-ND2
# 90  HD22-ND2
# 91  HE-NE
# 92  HE1-NE1
# 93  HE21-NE2
# 94  HE22-NE2
# 95  HG-OG
# 96  HG1-OG1
# 97  HH-OH
# 98  HH11-NH1
# 99  HH12-NH1
# 100  HH21-NH2
# 101  HH22-NH2
# 102  HZ1-NZ
# 103  HZ2-NZ
# 104  HZ3-NZ
# 105  SG-SG

# Angle Coeffs
#
# 1  C-CA-CB
# 2  C-CA-HA
# 3  C-CA-HA2
# 4  C-CA-HA3
# 5  C-CA-N
# 6  C-N-CA
# 7  C-N-CD
# 8  C-N-H
# 9  CA-C-N
# 10  CA-C-O
# 11  CA-C-OXT
# 12  CA-CB-CG
# 13  CA-CB-CG1
# 14  CA-CB-CG2
# 15  CA-CB-HB
# 16  CA-CB-HB1
# 17  CA-CB-HB2
# 18  CA-CB-HB3
# 19  CA-CB-OG
# 20  CA-CB-OG1
# 21  CA-CB-SG
# 22  CA-N-CD
# 23  CA-N-H
# 24  CA-N-H1
# 25  CA-N-H2
# 26  CA-N-H3
# 27  CB-CA-HA
# 28  CB-CA-N
# 29  CB-CG-CD
# 30  CB-CG-CD1
# 31  CB-CG-CD2
# 32  CB-CG-HG
# 33  CB-CG-HG2
# 34  CB-CG-HG3
# 35  CB-CG-ND1
# 36  CB-CG-ND2
# 37  CB-CG-OD1
# 38  CB-CG-OD2
# 39  CB-CG-SD
# 40  CB-CG1-CD1
# 41  CB-CG1-HG11
# 42  CB-CG1-HG12
# 43  CB-CG1-HG13
# 44  CB-CG2-HG21
# 45  CB-CG2-HG22
# 46  CB-CG2-HG23
# 47  CB-OG-HG
# 48  CB-OG1-HG1
# 49  CB-SG-SG
# 50  CD-CE-HE2
# 51  CD-CE-HE3
# 52  CD-CE-NZ
# 53  CD-CG-HG2
# 54  CD-CG-HG3
# 55  CD-NE-CZ
# 56  CD-NE-HE
# 57  CD-NE2-HE21
# 58  CD-NE2-HE22
# 59  CD1-CE1-CZ
# 60  CD1-CE1-HE1
# 61  CD1-CG-CD2
# 62  CD1-CG-HG
# 63  CD1-CG1-HG12
# 64  CD1-CG1-HG13
# 65  CD1-NE1-CE2
# 66  CD1-NE1-HE1
# 67  CD2-CE2-CZ
# 68  CD2-CE2-CZ2
# 69  CD2-CE2-HE2
# 70  CD2-CE2-NE1
# 71  CD2-CE3-CZ3
# 72  CD2-CE3-HE3
# 73  CD2-CG-HG
# 74  CD2-CG-ND1
# 75  CD2-NE2-CE1
# 76  CE-CD-CG
# 77  CE-CD-HD2
# 78  CE-CD-HD3
# 79  CE-NZ-HZ1
# 80  CE-NZ-HZ2
# 81  CE-NZ-HZ3
# 82  CE-SD-CG
# 83  CE1-CD1-CG
# 84  CE1-CD1-HD1
# 85  CE1-CZ-CE2
# 86  CE1-CZ-HZ
# 87  CE1-CZ-OH
# 88  CE1-ND1-CG
# 89  CE1-ND1-HD1
# 90  CE2-CD2-CE3
# 91  CE2-CD2-CG
# 92  CE2-CD2-HD2
# 93  CE2-CZ-HZ
# 94  CE2-CZ-OH
# 95  CE2-CZ2-CH2
# 96  CE2-CZ2-HZ2
# 97  CE2-NE1-HE1
# 98  CE3-CD2-CG
# 99  CE3-CZ3-CH2
# 100  CE3-CZ3-HZ3
# 101  CG-CB-HB2
# 102  CG-CB-HB3
# 103  CG-CD-HD2
# 104  CG-CD-HD3
# 105  CG-CD-N
# 106  CG-CD-NE
# 107  CG-CD-NE2
# 108  CG-CD-OE1
# 109  CG-CD-OE2
# 110  CG-CD1-HD1
# 111  CG-CD1-HD11
# 112  CG-CD1-HD12
# 113  CG-CD1-HD13
# 114  CG-CD1-NE1
# 115  CG-CD2-HD2
# 116  CG-CD2-HD21
# 117  CG-CD2-HD22
# 118  CG-CD2-HD23
# 119  CG-CD2-NE2
# 120  CG-ND1-HD1
# 121  CG-ND2-HD21
# 122  CG-ND2-HD22
# 123  CG1-CB-CG2
# 124  CG1-CB-HB
# 125  CG1-CD1-HD11
# 126  CG1-CD1-HD12
# 127  CG1-CD1-HD13
# 128  CG2-CB-HB
# 129  CG2-CB-OG1
# 130  CH2-CZ2-HZ2
# 131  CH2-CZ3-HZ3
# 132  CZ-CE1-HE1
# 133  CZ-CE2-HE2
# 134  CZ-NE-HE
# 135  CZ-NH1-HH11
# 136  CZ-NH1-HH12
# 137  CZ-NH2-HH21
# 138  CZ-NH2-HH22
# 139  CZ-OH-HH
# 140  CZ2-CE2-NE1
# 141  CZ2-CH2-CZ3
# 142  CZ2-CH2-HH2
# 143  CZ3-CE3-HE3
# 144  CZ3-CH2-HH2
# 145  H1-N-H2
# 146  H1-N-H3
# 147  H2-N-H3
# 148  HA-CA-N
# 149  HA2-CA-HA3
# 150  HA2-CA-N
# 151  HA3-CA-N
# 152  HB-CB-OG1
# 153  HB1-CB-HB2
# 154  HB1-CB-HB3
# 155  HB2-CB-HB3
# 156  HB2-CB-OG
# 157  HB2-CB-SG
# 158  HB3-CB-OG
# 159  HB3-CB-SG
# 160  HD1-CD1-NE1
# 161  HD11-CD1-HD12
# 162  HD11-CD1-HD13
# 163  HD12-CD1-HD13
# 164  HD2-CD-HD3
# 165  HD2-CD-N
# 166  HD2-CD-NE
# 167  HD2-CD2-NE2
# 168  HD21-CD2-HD22
# 169  HD21-CD2-HD23
# 170  HD21-ND2-HD22
# 171  HD22-CD2-HD23
# 172  HD3-CD-N
# 173  HD3-CD-NE
# 174  HE1-CE-HE2
# 175  HE1-CE-HE3
# 176  HE1-CE-SD
# 177  HE1-CE1-ND1
# 178  HE1-CE1-NE2
# 179  HE2-CE-HE3
# 180  HE2-CE-NZ
# 181  HE2-CE-SD
# 182  HE21-NE2-HE22
# 183  HE3-CE-NZ
# 184  HE3-CE-SD
# 185  HG11-CG1-HG12
# 186  HG11-CG1-HG13
# 187  HG12-CG1-HG13
# 188  HG2-CG-HG3
# 189  HG2-CG-SD
# 190  HG21-CG2-HG22
# 191  HG21-CG2-HG23
# 192  HG22-CG2-HG23
# 193  HG3-CG-SD
# 194  HH11-NH1-HH12
# 195  HH21-NH2-HH22
# 196  HZ1-NZ-HZ2
# 197  HZ1-NZ-HZ3
# 198  HZ2-NZ-HZ3
# 199  N-C-O
# 200  ND1-CE1-NE2
# 201  ND2-CG-OD1
# 202  NE-CZ-NH1
# 203  NE-CZ-NH2
# 204  NE2-CD-OE1
# 205  NH1-CZ-NH2
# 206  O-C-OXT
# 207  OD1-CG-OD2
# 208  OE1-CD-OE2

# Dihedral Coeffs
#
# 1  C-CA-CB-CG
# 2  C-CA-CB-CG1
# 3  C-CA-CB-CG2
# 4  C-CA-CB-HB
# 5  C-CA-CB-HB1
# 6  C-CA-CB-HB2
# 7  C-CA-CB-HB3
# 8  C-CA-CB-OG
# 9  C-CA-CB-OG1
# 10  C-CA-CB-SG
# 11  C-CA-N-C
# 12  C-CA-N-CD
# 13  C-CA-N-H
# 14  C-CA-N-H1
# 15  C-CA-N-H2
# 16  C-CA-N-H3
# 17  CA-C-N-CA
# 18  CA-C-N-CD
# 19  CA-C-N-H
# 20  CA-CB-CG-CD
# 21  CA-CB-CG-CD1
# 22  CA-CB-CG-CD2
# 23  CA-CB-CG-HG
# 24  CA-CB-CG-HG2
# 25  CA-CB-CG-HG3
# 26  CA-CB-CG-ND1
# 27  CA-CB-CG-ND2
# 28  CA-CB-CG-OD1
# 29  CA-CB-CG-OD2
# 30  CA-CB-CG-SD
# 31  CA-CB-CG1-CD1
# 32  CA-CB-CG1-HG11
# 33  CA-CB-CG1-HG12
# 34  CA-CB-CG1-HG13
# 35  CA-CB-CG2-HG21
# 36  CA-CB-CG2-HG22
# 37  CA-CB-CG2-HG23
# 38  CA-CB-OG-HG
# 39  CA-CB-OG1-HG1
# 40  CA-CB-SG-SG
# 41  CB-CA-N-C
# 42  CB-CA-N-CD
# 43  CB-CA-N-H
# 44  CB-CA-N-H1
# 45  CB-CA-N-H2
# 46  CB-CA-N-H3
# 47  CB-CG-ND1-CE1
# 48  CB-CG-ND1-HD1
# 49  CB-CG-ND2-HD21
# 50  CB-CG-ND2-HD22
# 51  CB-CG-SD-CE
# 52  CB-SG-SG-CB
# 53  CD-CE-NZ-HZ1
# 54  CD-CE-NZ-HZ2
# 55  CD-CE-NZ-HZ3
# 56  CD1-CE1-CZ-CE2
# 57  CD1-CE1-CZ-HZ
# 58  CD1-CE1-CZ-OH
# 59  CD2-CE2-CZ-CE1
# 60  CD2-CE2-CZ-HZ
# 61  CD2-CE2-CZ-OH
# 62  CD2-CE2-CZ2-CH2
# 63  CD2-CE2-CZ2-HZ2
# 64  CD2-CE2-NE1-CD1
# 65  CD2-CE2-NE1-HE1
# 66  CD2-CE3-CZ3-CH2
# 67  CD2-CE3-CZ3-HZ3
# 68  CD2-CG-ND1-CE1
# 69  CD2-CG-ND1-HD1
# 70  CE-CD-CG-CB
# 71  CE-CD-CG-HG2
# 72  CE-CD-CG-HG3
# 73  CE1-CD1-CG-CB
# 74  CE1-CD1-CG-CD2
# 75  CE1-CZ-OH-HH
# 76  CE2-CD2-CE3-CZ3
# 77  CE2-CD2-CE3-HE3
# 78  CE2-CD2-CG-CB
# 79  CE2-CD2-CG-CD1
# 80  CE2-CZ-OH-HH
# 81  CE3-CD2-CE2-CZ2
# 82  CE3-CD2-CE2-NE1
# 83  CE3-CD2-CG-CB
# 84  CE3-CD2-CG-CD1
# 85  CG-CD-CE-HE2
# 86  CG-CD-CE-HE3
# 87  CG-CD-CE-NZ
# 88  CG-CD-N-C
# 89  CG-CD-N-CA
# 90  CG-CD-NE-CZ
# 91  CG-CD-NE-HE
# 92  CG-CD-NE2-HE21
# 93  CG-CD-NE2-HE22
# 94  CG-CD1-CE1-CZ
# 95  CG-CD1-CE1-HE1
# 96  CG-CD1-NE1-CE2
# 97  CG-CD1-NE1-HE1
# 98  CG-CD2-CE2-CZ
# 99  CG-CD2-CE2-CZ2
# 100  CG-CD2-CE2-HE2
# 101  CG-CD2-CE2-NE1
# 102  CG-CD2-CE3-CZ3
# 103  CG-CD2-CE3-HE3
# 104  CG-CD2-NE2-CE1
# 105  CG1-CB-CG2-HG21
# 106  CG1-CB-CG2-HG22
# 107  CG1-CB-CG2-HG23
# 108  CG2-CB-CG1-CD1
# 109  CG2-CB-CG1-HG11
# 110  CG2-CB-CG1-HG12
# 111  CG2-CB-CG1-HG13
# 112  CG2-CB-OG1-HG1
# 113  CZ2-CE2-NE1-CD1
# 114  CZ2-CE2-NE1-HE1
# 115  CZ2-CH2-CZ3-CE3
# 116  CZ2-CH2-CZ3-HZ3
# 117  CZ3-CH2-CZ2-CE2
# 118  CZ3-CH2-CZ2-HZ2
# 119  HA-CA-CB-CG
# 120  HA-CA-CB-CG1
# 121  HA-CA-CB-CG2
# 122  HA-CA-CB-HB
# 123  HA-CA-CB-HB1
# 124  HA-CA-CB-HB2
# 125  HA-CA-CB-HB3
# 126  HA-CA-CB-OG
# 127  HA-CA-CB-OG1
# 128  HA-CA-CB-SG
# 129  HA-CA-N-C
# 130  HA-CA-N-CD
# 131  HA-CA-N-H
# 132  HA-CA-N-H1
# 133  HA-CA-N-H2
# 134  HA-CA-N-H3
# 135  HA2-CA-N-C
# 136  HA2-CA-N-H
# 137  HA3-CA-N-C
# 138  HA3-CA-N-H
# 139  HB-CB-CG1-CD1
# 140  HB-CB-CG1-HG11
# 141  HB-CB-CG1-HG12
# 142  HB-CB-CG1-HG13
# 143  HB-CB-CG2-HG21
# 144  HB-CB-CG2-HG22
# 145  HB-CB-CG2-HG23
# 146  HB-CB-OG1-HG1
# 147  HB2-CB-CG-CD
# 148  HB2-CB-CG-CD1
# 149  HB2-CB-CG-CD2
# 150  HB2-CB-CG-HG
# 151  HB2-CB-CG-HG2
# 152  HB2-CB-CG-HG3
# 153  HB2-CB-CG-ND1
# 154  HB2-CB-CG-ND2
# 155  HB2-CB-CG-OD1
# 156  HB2-CB-CG-OD2
# 157  HB2-CB-CG-SD
# 158  HB2-CB-OG-HG
# 159  HB2-CB-SG-SG
# 160  HB3-CB-CG-CD
# 161  HB3-CB-CG-CD1
# 162  HB3-CB-CG-CD2
# 163  HB3-CB-CG-HG
# 164  HB3-CB-CG-HG2
# 165  HB3-CB-CG-HG3
# 166  HB3-CB-CG-ND1
# 167  HB3-CB-CG-ND2
# 168  HB3-CB-CG-OD1
# 169  HB3-CB-CG-OD2
# 170  HB3-CB-CG-SD
# 171  HB3-CB-OG-HG
# 172  HB3-CB-SG-SG
# 173  HD1-CD1-CE1-CZ
# 174  HD1-CD1-CE1-HE1
# 175  HD1-CD1-CG-CB
# 176  HD1-CD1-CG-CD2
# 177  HD1-CD1-NE1-CE2
# 178  HD1-CD1-NE1-HE1
# 179  HD11-CD1-CG-CB
# 180  HD11-CD1-CG-CD2
# 181  HD11-CD1-CG-HG
# 182  HD11-CD1-CG1-CB
# 183  HD11-CD1-CG1-HG12
# 184  HD11-CD1-CG1-HG13
# 185  HD12-CD1-CG-CB
# 186  HD12-CD1-CG-CD2
# 187  HD12-CD1-CG-HG
# 188  HD12-CD1-CG1-CB
# 189  HD12-CD1-CG1-HG12
# 190  HD12-CD1-CG1-HG13
# 191  HD13-CD1-CG-CB
# 192  HD13-CD1-CG-CD2
# 193  HD13-CD1-CG-HG
# 194  HD13-CD1-CG1-CB
# 195  HD13-CD1-CG1-HG12
# 196  HD13-CD1-CG1-HG13
# 197  HD2-CD-CE-HE2
# 198  HD2-CD-CE-HE3
# 199  HD2-CD-CE-NZ
# 200  HD2-CD-CG-CB
# 201  HD2-CD-CG-HG2
# 202  HD2-CD-CG-HG3
# 203  HD2-CD-N-C
# 204  HD2-CD-N-CA
# 205  HD2-CD-NE-CZ
# 206  HD2-CD-NE-HE
# 207  HD2-CD2-CE2-CZ
# 208  HD2-CD2-CE2-HE2
# 209  HD2-CD2-CG-CB
# 210  HD2-CD2-CG-CD1
# 211  HD2-CD2-CG-ND1
# 212  HD2-CD2-NE2-CE1
# 213  HD21-CD2-CG-CB
# 214  HD21-CD2-CG-CD1
# 215  HD21-CD2-CG-HG
# 216  HD22-CD2-CG-CB
# 217  HD22-CD2-CG-CD1
# 218  HD22-CD2-CG-HG
# 219  HD23-CD2-CG-CB
# 220  HD23-CD2-CG-CD1
# 221  HD23-CD2-CG-HG
# 222  HD3-CD-CE-HE2
# 223  HD3-CD-CE-HE3
# 224  HD3-CD-CE-NZ
# 225  HD3-CD-CG-CB
# 226  HD3-CD-CG-HG2
# 227  HD3-CD-CG-HG3
# 228  HD3-CD-N-C
# 229  HD3-CD-N-CA
# 230  HD3-CD-NE-CZ
# 231  HD3-CD-NE-HE
# 232  HE1-CE-SD-CG
# 233  HE1-CE1-CZ-CE2
# 234  HE1-CE1-CZ-HZ
# 235  HE1-CE1-CZ-OH
# 236  HE1-CE1-ND1-CG
# 237  HE1-CE1-ND1-HD1
# 238  HE1-CE1-NE2-CD2
# 239  HE2-CE-NZ-HZ1
# 240  HE2-CE-NZ-HZ2
# 241  HE2-CE-NZ-HZ3
# 242  HE2-CE-SD-CG
# 243  HE2-CE2-CZ-CE1
# 244  HE2-CE2-CZ-HZ
# 245  HE2-CE2-CZ-OH
# 246  HE3-CE-NZ-HZ1
# 247  HE3-CE-NZ-HZ2
# 248  HE3-CE-NZ-HZ3
# 249  HE3-CE-SD-CG
# 250  HE3-CE3-CZ3-CH2
# 251  HE3-CE3-CZ3-HZ3
# 252  HG2-CG-SD-CE
# 253  HG3-CG-SD-CE
# 254  HH2-CH2-CZ2-CE2
# 255  HH2-CH2-CZ2-HZ2
# 256  HH2-CH2-CZ3-CE3
# 257  HH2-CH2-CZ3-HZ3
# 258  N-C-CA-CB
# 259  N-C-CA-HA
# 260  N-C-CA-HA2
# 261  N-C-CA-HA3
# 262  N-C-CA-N
# 263  N-CA-CB-CG
# 264  N-CA-CB-CG1
# 265  N-CA-CB-CG2
# 266  N-CA-CB-HB
# 267  N-CA-CB-HB1
# 268  N-CA-CB-HB2
# 269  N-CA-CB-HB3
# 270  N-CA-CB-OG
# 271  N-CA-CB-OG1
# 272  N-CA-CB-SG
# 273  N-CD-CG-CB
# 274  N-CD-CG-HG2
# 275  N-CD-CG-HG3
# 276  ND1-CE1-NE2-CD2
# 277  NE-CD-CG-CB
# 278  NE-CD-CG-HG2
# 279  NE-CD-CG-HG3
# 280  NE-CZ-NH1-HH11
# 281  NE-CZ-NH1-HH12
# 282  NE-CZ-NH2-HH21
# 283  NE-CZ-NH2-HH22
# 284  NE1-CD1-CG-CB
# 285  NE1-CD1-CG-CD2
# 286  NE1-CE2-CZ2-CH2
# 287  NE1-CE2-CZ2-HZ2
# 288  NE2-CD-CG-CB
# 289  NE2-CD-CG-HG2
# 290  NE2-CD-CG-HG3
# 291  NE2-CD2-CG-CB
# 292  NE2-CD2-CG-ND1
# 293  NE2-CE1-ND1-CG
# 294  NE2-CE1-ND1-HD1
# 295  NH1-CZ-NE-CD
# 296  NH1-CZ-NE-HE
# 297  NH1-CZ-NH2-HH21
# 298  NH1-CZ-NH2-HH22
# 299  NH2-CZ-NE-CD
# 300  NH2-CZ-NE-HE
# 301  NH2-CZ-NH1-HH11
# 302  NH2-CZ-NH1-HH12
# 303  O-C-CA-CB
# 304  O-C-CA-HA
# 305  O-C-CA-HA2
# 306  O-C-CA-HA3
# 307  O-C-CA-N
# 308  O-C-N-CA
# 309  O-C-N-CD
# 310  O-C-N-H
# 311  OD1-CG-ND2-HD21
# 312  OD1-CG-ND2-HD22
# 313  OE1-CD-CG-CB
# 314  OE1-CD-CG-HG2
# 315  OE1-CD-CG-HG3
# 316  OE1-CD-NE2-HE21
# 317  OE1-CD-NE2-HE22
# 318  OE2-CD-CG-CB
# 319  OE2-CD-CG-HG2
# 320  OE2-CD-CG-HG3
# 321  OG1-CB-CG2-HG21
# 322  OG1-CB-CG2-HG22
# 323  OG1-CB-CG2-HG23
# 324  OXT-C-CA-CB
# 325  OXT-C-CA-HA
# 326  OXT-C-CA-N

# Improper Coeffs
#
# 1  C-CA-N-CD
# 2  C-CA-N-H
# 3  CA-N-C-O
# 4  CA-O-C-OXT
# 5  CB-CD1-CG-CD2
# 6  CB-CD2-CG-ND1
# 7  CB-ND2-CG-OD1
# 8  CB-OD1-CG-OD2
# 9  CD-CZ-NE-HE
# 10  CD-HE21-NE2-HE22
# 11  CD1-CE2-NE1-HE1
# 12  CD1-CZ-CE1-HE1
# 13  CD2-CZ-CE2-HE2
# 14  CD2-CZ2-CE2-NE1
# 15  CD2-CZ3-CE3-HE3
# 16  CE1-CE2-CZ-HZ
# 17  CE1-CE2-CZ-OH
# 18  CE1-CG-CD1-HD1
# 19  CE1-CG-ND1-HD1
# 20  CE2-CE3-CD2-CG
# 21  CE2-CG-CD2-HD2
# 22  CE2-CH2-CZ2-HZ2
# 23  CE3-CH2-CZ3-HZ3
# 24  CG-HD1-CD1-NE1
# 25  CG-HD2-CD2-NE2
# 26  CG-HD21-ND2-HD22
# 27  CG-NE2-CD-OE1
# 28  CG-OE1-CD-OE2
# 29  CZ-HH11-NH1-HH12
# 30  CZ-HH21-NH2-HH22
# 31  CZ2-CZ3-CH2-HH2
# 32  HE1-ND1-CE1-NE2
# 33  NE-NH1-CZ-NH2

 Masses

 1 12.010700 # C
 2 12.010700 # CA
 3 12.010700 # CB
 4 12.010700 # CD
 5 12.010700 # CD1
 6 12.010700 # CD2
 7 12.010700 # CE
 8 12.010700 # CE1
 9 12.010700 # CE2
 10 12.010700 # CE3
 11 12.010700 # CG
 12 12.010700 # CG1
 13 12.010700 # CG2
 14 12.010700 # CH2
 15 12.010700 # CZ
 16 12.010700 # CZ2
 17 12.010700 # CZ3
 18 1.007940 # H
 19 1.007940 # H1
 20 1.007940 # H2
 21 1.007940 # H3
 22 1.007940 # HA
 23 1.007940 # HA2
 24 1.007940 # HA3
 25 1.007940 # HB
 26 1.007940 # HB1
 27 1.007940 # HB2
 28 1.007940 # HB3
 29 1.007940 # HD1
 30 1.007940 # HD11
 31 1.007940 # HD12
 32 1.007940 # HD13
 33 1.007940 # HD2
 34 1.007940 # HD21
 35 1.007940 # HD22
 36 1.007940 # HD23
 37 1.007940 # HD3
 38 1.007940 # HE
 39 1.007940 # HE1
 40 1.007940 # HE2
 41 1.007940 # HE21
 42 1.007940 # HE22
 43 1.007940 # HE3
 44 1.007940 # HG
 45 1.007940 # HG1
 46 1.007940 # HG11
 47 1.007940 # HG12
 48 1.007940 # HG13
 49 1.007940 # HG2
 50 1.007940 # HG21
 51 1.007940 # HG22
 52 1.007940 # HG23
 53 1.007940 # HG3
 54 1.007940 # HH
 55 1.007940 # HH11
 56 1.007940 # HH12
 57 1.007940 # HH2
 58 1.007940 # HH21
 59 1.007940 # HH22
 60 1.007940 # HZ
 61 1.007940 # HZ1
 62 1.007940 # HZ2
 63 1.007940 # HZ3
 64 14.006700 # N
 65 14.006700 # ND1
 66 14.006700 # ND2
 67 14.006700 # NE
 68 14.006700 # NE1
 69 14.006700 # NE2
 70 14.006700 # NH1
 71 14.006700 # NH2
 72 14.006700 # NZ
 73 15.999400 # O
 74 15.999400 # OD1
 75 15.999400 # OD2
 76 15.999400 # OE1
 77 15.999400 # OE2
 78 15.999400 # OG
 79 15.999400 # OG1
 80 15.999400 # OH
 81 15.999400 # OXT
 82 32.064999 # SD
 83 32.064999 # SG

 Atoms # molecular

1 1 64 -19.990000 19.118000 6.407000 # N GLU
2 1 2 -20.159000 17.721001 5.927000 # CA GLU
3 1 1 -19.948000 16.743999 7.087000 # C GLU
4 1 73 -19.233999 17.018000 8.031000 # O GLU
5 1 3 -19.153000 17.419001 4.815000 # CB GLU
6 1 11 -17.733999 17.544001 5.348000 # CG GLU
7 1 4 -16.981001 18.610001 4.546000 # CD GLU
8 1 76 -17.174000 19.784000 4.819000 # OE1 GLU
9 1 77 -16.226000 18.229000 3.668000 # OE2 GLU
10 1 19 -20.156000 19.152000 7.431000 # H1 GLU
11 1 20 -19.028000 19.450001 6.197000 # H2 GLU
12 1 21 -20.679001 19.731001 5.927000 # H3 GLU
13 1 22 -21.159000 17.600000 5.539000 # HA GLU
14 1 27 -19.309000 16.412001 4.460000 # HB2 GLU
15 1 28 -19.292999 18.114000 3.999000 # HB3 GLU
16 1 49 -17.761000 17.820999 6.392000 # HG2 GLU
17 1 53 -17.233000 16.596001 5.236000 # HG3 GLU
18 2 64 -20.573999 15.605000 7.011000 # N ALA
19 2 2 -20.438000 14.584000 8.086000 # CA ALA
20 2 1 -21.247000 13.359000 7.675000 # C ALA
21 2 73 -20.813000 12.233000 7.816000 # O ALA
22 2 3 -20.979000 15.138000 9.402000 # CB ALA
23 2 18 -21.142000 15.416000 6.235000 # H ALA
24 2 22 -19.399000 14.311000 8.203000 # HA ALA
25 2 26 -21.490000 16.070000 9.217000 # HB1 ALA
26 2 27 -21.667999 14.428000 9.836000 # HB2 ALA
27 2 28 -20.158001 15.305000 10.084000 # HB3 ALA
28 3 64 -22.417000 13.583000 7.145000 # N GLU
29 3 2 -23.264999 12.452000 6.691000 # CA GLU
30 3 1 -22.898001 12.117000 5.247000 # C GLU
31 3 73 -23.125000 12.893000 4.339000 # O GLU
32 3 3 -24.738001 12.854000 6.756000 # CB GLU
33 3 11 -25.319000 12.445000 8.110000 # CG GLU
34 3 4 -26.815001 12.172000 7.957000 # CD GLU
35 3 76 -27.156000 11.093000 7.502000 # OE1 GLU
36 3 77 -27.594999 13.047000 8.294000 # OE2 GLU
37 3 18 -22.731001 14.504000 7.031000 # H GLU
38 3 22 -23.093000 11.591000 7.318000 # HA GLU
39 3 27 -24.825001 13.924000 6.632000 # HB2 GLU
40 3 28 -25.281000 12.355000 5.968000 # HB3 GLU
41 3 49 -24.822001 11.551000 8.458000 # HG2 GLU
42 3 53 -25.170000 13.242000 8.822000 # HG3 GLU
43 4 64 -22.326000 10.975000 5.029000 # N ALA
44 4 2 -21.937000 10.595000 3.649000 # CA ALA
45 4 1 -21.341999 9.196000 3.677000 # C ALA
46 4 73 -21.423000 8.494000 4.665000 # O ALA
47 4 3 -20.889000 11.579000 3.126000 # CB ALA
48 4 18 -22.143000 10.366000 5.775000 # H ALA
49 4 22 -22.806000 10.612000 3.008000 # HA ALA
50 4 26 -21.023001 12.537000 3.606000 # HB1 ALA
51 4 27 -19.900999 11.201000 3.344000 # HB2 ALA
52 4 28 -21.000999 11.692000 2.057000 # HB3 ALA
53 5 64 -20.733000 8.790000 2.609000 # N HIS
54 5 2 -20.115999 7.446000 2.581000 # CA HIS
55 5 1 -18.607000 7.620000 2.551000 # C HIS
56 5 73 -18.049999 7.938000 1.524000 # O HIS
57 5 3 -20.569000 6.696000 1.329000 # CB HIS
58 5 11 -22.058001 6.501000 1.379000 # CG HIS
59 5 65 -22.632999 5.286000 1.712000 # ND1 HIS
60 5 6 -23.103001 7.360000 1.147000 # CD2 HIS
61 5 8 -23.966999 5.445000 1.672000 # CE1 HIS
62 5 69 -24.308001 6.692000 1.333000 # NE2 HIS
63 5 18 -20.669001 9.377000 1.826000 # H HIS
64 5 22 -20.402000 6.891000 3.464000 # HA HIS
65 5 27 -20.309999 7.271000 0.452000 # HB2 HIS
66 5 28 -20.082001 5.733000 1.287000 # HB3 HIS
67 5 29 -22.153999 4.461000 1.934000 # HD1 HIS
68 5 33 -23.004000 8.398000 0.864000 # HD2 HIS
69 5 39 -24.677000 4.661000 1.889000 # HE1 HIS
70 6 64 -17.943001 7.427000 3.666000 # N LYS
71 6 2 -16.462000 7.585000 3.687000 # CA LYS
72 6 1 -15.894000 6.668000 2.612000 # C LYS
73 6 73 -15.719000 5.482000 2.812000 # O LYS
74 6 3 -15.911000 7.200000 5.063000 # CB LYS
75 6 11 -15.998000 8.401000 6.024000 # CG LYS
76 6 4 -17.458000 8.850000 6.221000 # CD LYS
77 6 7 -18.253000 7.765000 6.958000 # CE LYS
78 6 72 -19.698999 7.883000 6.612000 # NZ LYS
79 6 18 -18.421000 7.177000 4.483000 # H LYS
80 6 22 -16.205000 8.611000 3.463000 # HA LYS
81 6 27 -16.480000 6.372000 5.458000 # HB2 LYS
82 6 28 -14.879000 6.904000 4.960000 # HB3 LYS
83 6 49 -15.581000 8.124000 6.981000 # HG2 LYS
84 6 53 -15.429000 9.224000 5.615000 # HG3 LYS
85 6 33 -17.472000 9.759000 6.808000 # HD2 LYS
86 6 37 -17.912001 9.040000 5.264000 # HD3 LYS
87 6 40 -17.893999 6.792000 6.669000 # HE2 LYS
88 6 43 -18.128000 7.891000 8.024000 # HE3 LYS
89 6 61 -19.922001 8.871000 6.382000 # HZ1 LYS
90 6 62 -19.908001 7.283000 5.790000 # HZ2 LYS
91 6 63 -20.275000 7.575000 7.422000 # HZ3 LYS
92 7 64 -15.658000 7.209000 1.457000 # N CYS
93 7 2 -15.160000 6.390000 0.326000 # CA CYS
94 7 1 -14.956000 7.294000 -0.898000 # C CYS
95 7 73 -14.098000 7.068000 -1.726000 # O CYS
96 7 3 -16.204000 5.318000 -0.002000 # CB CYS
97 7 83 -15.742000 4.466000 -1.529000 # SG CYS
98 7 18 -15.841000 8.159000 1.329000 # H CYS
99 7 22 -14.235000 5.918000 0.605000 # HA CYS
100 7 27 -16.253000 4.605000 0.808000 # HB2 CYS
101 7 28 -17.170000 5.784000 -0.129000 # HB3 CYS
102 8 64 -15.763000 8.311000 -1.032000 # N ASP
103 8 2 -15.636000 9.221000 -2.199000 # CA ASP
104 8 1 -14.437000 10.159000 -2.016000 # C ASP
105 8 73 -13.667000 10.372000 -2.925000 # O ASP
106 8 3 -16.914000 10.055000 -2.319000 # CB ASP
107 8 11 -17.211000 10.334000 -3.792000 # CG ASP
108 8 74 -16.393000 10.978000 -4.429000 # OD1 ASP
109 8 75 -18.250000 9.899000 -4.259000 # OD2 ASP
110 8 18 -16.466000 8.470000 -0.373000 # H ASP
111 8 22 -15.502000 8.640000 -3.095000 # HA ASP
112 8 27 -17.739000 9.512000 -1.880000 # HB2 ASP
113 8 28 -16.781000 10.992000 -1.797000 # HB3 ASP
114 9 64 -14.287000 10.744000 -0.862000 # N ILE
115 9 2 -13.151000 11.693000 -0.651000 # CA ILE
116 9 1 -11.910000 10.974000 -0.108000 # C ILE
117 9 73 -10.876000 10.940000 -0.742000 # O ILE
118 9 3 -13.579000 12.775000 0.342000 # CB ILE
119 9 12 -14.660000 13.650000 -0.297000 # CG1 ILE
120 9 13 -12.371000 13.644000 0.704000 # CG2 ILE
121 9 5 -15.103000 14.723000 0.699000 # CD1 ILE
122 9 18 -14.931000 10.579000 -0.142000 # H ILE
123 9 22 -12.904000 12.160000 -1.592000 # HA ILE
124 9 25 -13.969000 12.311000 1.236000 # HB ILE
125 9 47 -14.263000 14.122000 -1.184000 # HG12 ILE
126 9 48 -15.508000 13.037000 -0.564000 # HG13 ILE
127 9 50 -11.919000 14.027000 -0.199000 # HG21 ILE
128 9 51 -12.695000 14.470000 1.321000 # HG22 ILE
129 9 52 -11.649000 13.052000 1.246000 # HG23 ILE
130 9 30 -14.680000 14.511000 1.670000 # HD11 ILE
131 9 31 -14.763000 15.690000 0.362000 # HD12 ILE
132 9 32 -16.181000 14.726000 0.770000 # HD13 ILE
133 10 64 -11.992000 10.439000 1.077000 # N THR
134 10 2 -10.806000 9.761000 1.688000 # CA THR
135 10 1 -10.283000 8.628000 0.797000 # C THR
136 10 73 -9.096000 8.369000 0.746000 # O THR
137 10 3 -11.210000 9.177000 3.043000 # CB THR
138 10 79 -11.614000 10.229000 3.909000 # OG1 THR
139 10 13 -10.023000 8.434000 3.656000 # CG2 THR
140 10 18 -12.827000 10.506000 1.585000 # H THR
141 10 22 -10.020000 10.486000 1.837000 # HA THR
142 10 25 -12.028000 8.488000 2.906000 # HB THR
143 10 45 -12.154000 9.847000 4.605000 # HG1 THR
144 10 50 -9.115000 8.989000 3.471000 # HG21 THR
145 10 51 -10.172000 8.335000 4.722000 # HG22 THR
146 10 52 -9.943000 7.453000 3.211000 # HG23 THR
147 11 64 -11.150000 7.924000 0.130000 # N LEU
148 11 2 -10.684000 6.781000 -0.710000 # CA LEU
149 11 1 -10.203000 7.246000 -2.086000 # C LEU
150 11 73 -9.174000 6.808000 -2.546000 # O LEU
151 11 3 -11.830000 5.794000 -0.875000 # CB LEU
152 11 11 -11.465000 4.425000 -0.292000 # CG LEU
153 11 5 -10.905000 4.576000 1.123000 # CD1 LEU
154 11 6 -12.728000 3.573000 -0.234000 # CD2 LEU
155 11 18 -12.106000 8.123000 0.204000 # H LEU
156 11 22 -9.866000 6.292000 -0.211000 # HA LEU
157 11 27 -12.685000 6.177000 -0.357000 # HB2 LEU
158 11 28 -12.064000 5.687000 -1.923000 # HB3 LEU
159 11 44 -10.733000 3.945000 -0.924000 # HG LEU
160 11 30 -11.030000 5.596000 1.453000 # HD11 LEU
161 11 31 -11.436000 3.913000 1.790000 # HD12 LEU
162 11 32 -9.855000 4.322000 1.123000 # HD13 LEU
163 11 34 -13.257000 3.664000 -1.167000 # HD21 LEU
164 11 35 -12.462000 2.540000 -0.070000 # HD22 LEU
165 11 36 -13.359000 3.917000 0.572000 # HD23 LEU
166 12 64 -10.918000 8.109000 -2.761000 # N GLN
167 12 2 -10.427000 8.541000 -4.104000 # CA GLN
168 12 1 -9.041000 9.162000 -3.932000 # C GLN
169 12 73 -8.174000 9.021000 -4.772000 # O GLN
170 12 3 -11.405000 9.536000 -4.752000 # CB GLN
171 12 11 -11.029000 10.984000 -4.414000 # CG GLN
172 12 4 -12.026000 11.935000 -5.084000 # CD GLN
173 12 76 -13.192000 11.954000 -4.749000 # OE1 GLN
174 12 69 -11.612000 12.730000 -6.033000 # NE2 GLN
175 12 18 -11.758000 8.460000 -2.397000 # H GLN
176 12 22 -10.339000 7.669000 -4.737000 # HA GLN
177 12 27 -11.381000 9.407000 -5.824000 # HB2 GLN
178 12 28 -12.402000 9.333000 -4.396000 # HB3 GLN
179 12 49 -11.057000 11.126000 -3.343000 # HG2 GLN
180 12 53 -10.037000 11.201000 -4.782000 # HG3 GLN
181 12 41 -10.670000 12.716000 -6.309000 # HE21 GLN
182 12 42 -12.240000 13.341000 -6.470000 # HE22 GLN
183 13 64 -8.817000 9.821000 -2.829000 # N GLU
184 13 2 -7.479000 10.417000 -2.580000 # CA GLU
185 13 1 -6.515000 9.273000 -2.280000 # C GLU
186 13 73 -5.371000 9.280000 -2.689000 # O GLU
187 13 3 -7.548000 11.368000 -1.382000 # CB GLU
188 13 11 -6.944000 12.719000 -1.766000 # CG GLU
189 13 4 -6.920000 13.636000 -0.543000 # CD GLU
190 13 76 -6.335000 13.246000 0.455000 # OE1 GLU
191 13 77 -7.489000 14.712000 -0.622000 # OE2 GLU
192 13 18 -9.522000 9.899000 -2.155000 # H GLU
193 13 22 -7.149000 10.955000 -3.457000 # HA GLU
194 13 27 -8.580000 11.503000 -1.090000 # HB2 GLU
195 13 28 -6.992000 10.948000 -0.557000 # HB3 GLU
196 13 49 -5.936000 12.571000 -2.126000 # HG2 GLU
197 13 53 -7.540000 13.172000 -2.542000 # HG3 GLU
198 14 64 -6.989000 8.276000 -1.584000 # N ILE
199 14 2 -6.132000 7.100000 -1.270000 # CA ILE
200 14 1 -5.802000 6.355000 -2.573000 # C ILE
201 14 73 -4.867000 5.580000 -2.635000 # O ILE
202 14 3 -6.896000 6.174000 -0.315000 # CB ILE
203 14 12 -6.252000 6.218000 1.072000 # CG1 ILE
204 14 13 -6.877000 4.735000 -0.835000 # CG2 ILE
205 14 5 -7.324000 5.968000 2.135000 # CD1 ILE
206 14 18 -7.923000 8.291000 -1.283000 # H ILE
207 14 22 -5.218000 7.432000 -0.799000 # HA ILE
208 14 25 -7.918000 6.510000 -0.242000 # HB ILE
209 14 47 -5.490000 5.453000 1.139000 # HG12 ILE
210 14 48 -5.806000 7.187000 1.233000 # HG13 ILE
211 14 50 -5.857000 4.423000 -1.006000 # HG21 ILE
212 14 51 -7.331000 4.083000 -0.103000 # HG22 ILE
213 14 52 -7.434000 4.676000 -1.759000 # HG23 ILE
214 14 30 -8.171000 5.474000 1.683000 # HD11 ILE
215 14 31 -6.918000 5.343000 2.916000 # HD12 ILE
216 14 32 -7.639000 6.911000 2.557000 # HD13 ILE
217 15 64 -6.558000 6.588000 -3.619000 # N ILE
218 15 2 -6.286000 5.902000 -4.910000 # CA ILE
219 15 1 -5.133000 6.614000 -5.609000 # C ILE
220 15 73 -4.182000 5.997000 -6.039000 # O ILE
221 15 3 -7.532000 5.969000 -5.796000 # CB ILE
222 15 12 -8.487000 4.831000 -5.432000 # CG1 ILE
223 15 13 -7.124000 5.839000 -7.264000 # CG2 ILE
224 15 5 -9.930000 5.335000 -5.522000 # CD1 ILE
225 15 18 -7.300000 7.219000 -3.560000 # H ILE
226 15 22 -6.023000 4.871000 -4.728000 # HA ILE
227 15 25 -8.027000 6.918000 -5.646000 # HB ILE
228 15 47 -8.348000 4.009000 -6.122000 # HG12 ILE
229 15 48 -8.286000 4.496000 -4.427000 # HG13 ILE
230 15 50 -6.295000 5.152000 -7.347000 # HG21 ILE
231 15 51 -7.959000 5.466000 -7.838000 # HG22 ILE
232 15 52 -6.830000 6.806000 -7.643000 # HG23 ILE
233 15 30 -9.952000 6.260000 -6.078000 # HD11 ILE
234 15 31 -10.539000 4.600000 -6.025000 # HD12 ILE
235 15 32 -10.315000 5.503000 -4.527000 # HD13 ILE
236 16 64 -5.206000 7.913000 -5.716000 # N LYS
237 16 2 -4.106000 8.667000 -6.377000 # CA LYS
238 16 1 -2.807000 8.412000 -5.612000 # C LYS
239 16 73 -1.735000 8.360000 -6.183000 # O LYS
240 16 3 -4.429000 10.162000 -6.362000 # CB LYS
241 16 11 -4.887000 10.598000 -7.757000 # CG LYS
242 16 4 -5.376000 12.048000 -7.709000 # CD LYS
243 16 7 -6.538000 12.165000 -6.723000 # CE LYS
244 16 72 -7.395000 13.325000 -7.099000 # NZ LYS
245 16 18 -5.983000 8.393000 -5.355000 # H LYS
246 16 22 -3.998000 8.328000 -7.396000 # HA LYS
247 16 27 -5.217000 10.351000 -5.647000 # HB2 LYS
248 16 28 -3.547000 10.719000 -6.083000 # HB3 LYS
249 16 49 -4.058000 10.519000 -8.446000 # HG2 LYS
250 16 53 -5.691000 9.959000 -8.087000 # HG3 LYS
251 16 33 -4.567000 12.690000 -7.392000 # HD2 LYS
252 16 37 -5.709000 12.347000 -8.692000 # HD3 LYS
253 16 40 -7.127000 11.260000 -6.750000 # HE2 LYS
254 16 43 -6.150000 12.312000 -5.725000 # HE3 LYS
255 16 61 -6.808000 14.055000 -7.553000 # HZ1 LYS
256 16 62 -8.133000 13.012000 -7.760000 # HZ2 LYS
257 16 63 -7.841000 13.718000 -6.246000 # HZ3 LYS
258 17 64 -2.901000 8.237000 -4.323000 # N THR
259 17 2 -1.682000 7.968000 -3.511000 # CA THR
260 17 1 -1.175000 6.563000 -3.843000 # C THR
261 17 73 0.014000 6.315000 -3.926000 # O THR
262 17 3 -2.041000 8.051000 -2.023000 # CB THR
263 17 79 -2.706000 9.281000 -1.768000 # OG1 THR
264 17 13 -0.770000 7.974000 -1.175000 # CG2 THR
265 17 18 -3.777000 8.273000 -3.889000 # H THR
266 17 22 -0.919000 8.695000 -3.745000 # HA THR
267 17 25 -2.691000 7.231000 -1.763000 # HB THR
268 17 45 -2.825000 9.363000 -0.820000 # HG1 THR
269 17 50 -0.044000 7.347000 -1.670000 # HG21 THR
270 17 51 -0.363000 8.966000 -1.045000 # HG22 THR
271 17 52 -1.008000 7.554000 -0.208000 # HG23 THR
272 18 64 -2.080000 5.645000 -4.046000 # N LEU
273 18 2 -1.682000 4.251000 -4.387000 # CA LEU
274 18 1 -0.963000 4.259000 -5.739000 # C LEU
275 18 73 -0.091000 3.452000 -5.994000 # O LEU
276 18 3 -2.954000 3.388000 -4.462000 # CB LEU
277 18 11 -2.632000 1.884000 -4.413000 # CG LEU
278 18 5 -1.942000 1.450000 -5.706000 # CD1 LEU
279 18 6 -1.729000 1.571000 -3.218000 # CD2 LEU
280 18 18 -3.030000 5.876000 -3.980000 # H LEU
281 18 22 -1.018000 3.873000 -3.627000 # HA LEU
282 18 27 -3.594000 3.637000 -3.628000 # HB2 LEU
283 18 28 -3.475000 3.608000 -5.382000 # HB3 LEU
284 18 44 -3.555000 1.333000 -4.310000 # HG LEU
285 18 30 -2.151000 2.170000 -6.484000 # HD11 LEU
286 18 31 -0.876000 1.394000 -5.544000 # HD12 LEU
287 18 32 -2.312000 0.481000 -6.004000 # HD13 LEU
288 18 34 -1.738000 2.403000 -2.534000 # HD21 LEU
289 18 35 -2.092000 0.688000 -2.713000 # HD22 LEU
290 18 36 -0.721000 1.399000 -3.563000 # HD23 LEU
291 19 64 -1.312000 5.174000 -6.602000 # N ASN
292 19 2 -0.641000 5.243000 -7.927000 # CA ASN
293 19 1 0.696000 5.974000 -7.772000 # C ASN
294 19 73 1.619000 5.765000 -8.534000 # O ASN
295 19 3 -1.531000 6.002000 -8.914000 # CB ASN
296 19 11 -1.361000 5.418000 -10.320000 # CG ASN
297 19 74 -0.694000 4.418000 -10.500000 # OD1 ASN
298 19 66 -1.941000 6.005000 -11.332000 # ND2 ASN
299 19 18 -2.008000 5.822000 -6.373000 # H ASN
300 19 22 -0.465000 4.243000 -8.293000 # HA ASN
301 19 27 -2.564000 5.910000 -8.610000 # HB2 ASN
302 19 28 -1.251000 7.045000 -8.924000 # HB3 ASN
303 19 34 -2.479000 6.811000 -11.188000 # HD21 ASN
304 19 35 -1.838000 5.639000 -12.235000 # HD22 ASN
305 20 64 0.810000 6.828000 -6.788000 # N SER
306 20 2 2.087000 7.563000 -6.581000 # CA SER
307 20 1 3.189000 6.565000 -6.220000 # C SER
308 20 73 4.304000 6.661000 -6.692000 # O SER
309 20 3 1.917000 8.575000 -5.448000 # CB SER
310 20 78 1.674000 9.862000 -6.000000 # OG SER