LAMMPS data file Created by LigParGen - (Written by Leela S. Dodda)

      12 atoms
      11 bonds
      16 angles
      16 dihedrals
       5 impropers
 
      12 atom types
      11 bond types
      16 angle types
      16 dihedral types
       5 improper types
 
   -2.691930    47.308070 xlo xhi
    0.073320    50.073320 ylo yhi
   -2.103830    47.896170 zlo zhi

Masses

       1     12.011  
       2     12.011  
       3     12.011  
       4     15.999  
       5     15.999  
       6     12.011  
       7      1.008  
       8      1.008  
       9      1.008  
      10      1.008  
      11      1.008  
      12      1.008  

Pair Coeffs 

       1      0.066  3.5000000 
       2      0.076  3.5500000 
       3      0.070  3.5500000 
       4      0.170  3.1200000 
       5      0.210  2.9600000 
       6      0.076  3.5500000 
       7      0.030  2.5000000 
       8      0.030  2.5000000 
       9      0.030  2.5000000 
      10      0.000  0.0000000 
      11      0.030  2.5000000 
      12      0.030  2.5000000 

Bond Coeffs 

       1   317.0000     1.5100 
       2   410.0000     1.4440 
       3   450.0000     1.3640 
       4   570.0000     1.2290 
       5   549.0000     1.3400 
       6   340.0000     1.0900 
       7   340.0000     1.0900 
       8   340.0000     1.0900 
       9   553.0000     0.9450 
      10   340.0000     1.0800 
      11   340.0000     1.0800 

Angle Coeffs 

       1     70.000    119.700
       2     70.000    120.000
       3     80.000    125.300
       4     70.000    124.000
       5     35.000    109.500
       6     35.000    109.500
       7     35.000    109.500
       8     35.000    113.000
       9     35.000    120.000
      10     35.000    120.000
      11     35.000    117.000
      12     85.000    120.700
      13     33.000    107.800
      14     80.000    121.000
      15     33.000    107.800
      16     33.000    107.800

Dihedral Coeffs  

       1      0.900      0.230     -0.505      0.000 
       2      0.000      0.000     -0.372      0.000 
       3      1.500      5.500      0.000      0.000 
       4      0.000     14.000      0.000      0.000 
       5      0.000     14.000      0.000      0.000 
       6      3.200     -3.000      0.000      0.000 
       7      0.000      0.000     -0.372      0.000 
       8      0.000     14.000      0.000      0.000 
       9      0.000      0.000     -0.372      0.000 
      10      2.500      6.000      0.000      0.000 
      11      0.900      0.230     -0.505      0.000 
      12      0.000      5.500      0.000      0.000 
      13      0.000      0.000     -0.372      0.000 
      14      0.000     14.000      0.000      0.000 
      15      0.000      0.000     -0.372      0.000 
      16      0.000      0.000     -0.372      0.000 

Improper Coeffs 

       1     10.500      -1       2 
       2      2.500      -1       2 
       3      0.000      -1       2 
       4      0.000      -1       2 
       5      2.500      -1       2 

Atoms 

     1      1      1 -0.20280000    1.000  1.00000  0.00000
     2      1      2 -0.20560000   -0.503  1.00000  0.00000
     3      1      3 0.50610000   -1.156  1.00000  1.33937
     4      1      4 -0.55310000   -2.414  1.48589  1.34303
     5      1      5 -0.39160000   -0.590  0.63995  2.35820
     6      1      6 -0.20900000   -1.184  0.92524 -1.15749
     7      1      7 0.10610000    1.423  1.07807  1.00608
     8      1      8 0.10610000    1.380  1.84839 -0.57780
     9      1      9 0.10610000    1.378  0.07332 -0.44492
    10      1     10 0.45610000   -2.692  1.88787  0.50240
    11      1     11 0.14090000   -0.651  0.90619 -2.10383
    12      1     12 0.14090000   -2.263  0.83953 -1.21928

Bonds 

     1      1      2      1
     2      2      3      2
     3      3      4      3
     4      4      5      3
     5      5      6      2
     6      6      7      1
     7      7      8      1
     8      8      9      1
     9      9     10      4
    10     10     11      6
    11     11     12      6

Angles 

     1      1      1      2      3
     2      2      2      3      4
     3      3      2      3      5
     4      4      1      2      6
     5      5      2      1      7
     6      6      2      1      8
     7      7      2      1      9
     8      8      3      4     10
     9      9      2      6     11
    10     10      2      6     12
    11     11     11      6     12
    12     12      3      2      6
    13     13      7      1      9
    14     14      4      3      5
    15     15      8      1      9
    16     16      7      1      8

Dihedrals

     1      1      4      3      2      1 
     2      2      7      1      2      3 
     3      3     10      4      3      2 
     4      4     11      6      2      1 
     5      5     12      6      2      1 
     6      6      6      2      3      4 
     7      7      9      1      2      6 
     8      8     11      6      2      3 
     9      9      8      1      2      6 
    10     10      6      2      3      5 
    11     11      5      3      2      1 
    12     12     10      4      3      5 
    13     13      9      1      2      3 
    14     14     12      6      2      3 
    15     15      8      1      2      3 
    16     16      7      1      2      6 

Impropers

     1      1      3      2      4      5 
     2      2      2      1      3      6 
     3      3      1      2      7      8 
     4      4      1      9      7      2 
     5      5      6      2     11     12 

