LAMMPS data file Created by LigParGen - (Written by Leela S. Dodda)

      21 atoms
      20 bonds
      30 angles
      36 dihedrals
      10 impropers
 
      21 atom types
      20 bond types
      30 angle types
      36 dihedral types
      10 improper types
 
   -8.563400    41.436600 xlo xhi
   -2.328960    47.671040 ylo yhi
   -0.929100    49.070900 zlo zhi

Masses

       1     12.011  
       2     12.011  
       3     12.011  
       4     15.999  
       5     14.007  
       6     12.011  
       7     14.007  
       8     12.011  
       9     15.999  
      10     12.011  
      11     12.011  
      12      1.008  
      13      1.008  
      14      1.008  
      15      1.008  
      16      1.008  
      17      1.008  
      18      1.008  
      19      1.008  
      20      1.008  
      21      1.008  

Pair Coeffs 

       1      0.076  3.5500000 
       2      0.076  3.5500000 
       3      0.070  3.5500000 
       4      0.210  2.9600000 
       5      0.170  3.2500000 
       6      0.066  3.5000000 
       7      0.170  3.2500000 
       8      0.070  3.5500000 
       9      0.210  2.9600000 
      10      0.076  3.5500000 
      11      0.076  3.5500000 
      12      0.030  2.5000000 
      13      0.030  2.5000000 
      14      0.030  2.5000000 
      15      0.000  0.0000000 
      16      0.030  2.5000000 
      17      0.030  2.5000000 
      18      0.000  0.0000000 
      19      0.030  2.5000000 
      20      0.030  2.5000000 
      21      0.030  2.5000000 

Bond Coeffs 

       1   549.0000     1.3400 
       2   410.0000     1.4440 
       3   570.0000     1.2290 
       4   490.0000     1.3350 
       5   337.0000     1.4490 
       6   337.0000     1.4490 
       7   490.0000     1.3350 
       8   570.0000     1.2290 
       9   410.0000     1.4440 
      10   549.0000     1.3400 
      11   340.0000     1.0800 
      12   340.0000     1.0800 
      13   340.0000     1.0800 
      14   434.0000     1.0100 
      15   340.0000     1.0900 
      16   340.0000     1.0900 
      17   434.0000     1.0100 
      18   340.0000     1.0800 
      19   340.0000     1.0800 
      20   340.0000     1.0800 

Angle Coeffs 

       1     85.000    120.700
       2     80.000    125.300
       3     70.000    115.500
       4     50.000    121.900
       5     51.650    110.580
       6     50.000    121.900
       7     80.000    122.900
       8     70.000    115.500
       9     85.000    120.700
      10     35.000    120.000
      11     35.000    120.000
      12     35.000    120.000
      13     35.000    119.800
      14     35.000    109.500
      15     35.000    109.500
      16     38.000    118.400
      17     35.000    119.700
      18     35.000    120.000
      19     35.000    120.000
      20     35.000    109.500
      21     35.000    117.000
      22     35.000    119.700
      23     35.000    119.800
      24     33.000    107.800
      25     80.000    122.900
      26     38.000    118.400
      27     35.000    120.000
      28     35.000    117.000
      29     35.000    109.500
      30     80.000    125.300

Dihedral Coeffs  

       1      2.500      6.000      0.000      0.000 
       2      2.300      6.089      0.000      0.000 
       3     -2.365      0.912     -0.850      0.000 
       4     -2.365      0.912     -0.850      0.000 
       5      0.000      6.089      0.000      0.000 
       6      2.000      0.000      0.000      0.000 
       7      0.000     14.000      0.000      0.000 
       8      0.000     14.000      0.000      0.000 
       9      0.000      0.000      0.000      0.000 
      10      0.000      0.000      0.000      0.000 
      11      0.000      0.000      0.000      0.000 
      12      0.000      6.089      0.000      0.000 
      13      0.000      0.000      0.000      0.000 
      14      0.000      4.900      0.000      0.000 
      15      0.000     14.000      0.000      0.000 
      16      2.000      0.000      0.000      0.000 
      17      0.000     14.000      0.000      0.000 
      18      0.000      0.000      0.000      0.000 
      19      0.000      0.000      0.000      0.000 
      20      0.000      0.000      0.000      0.000 
      21      0.000      0.000      0.000      0.000 
      22      0.000     14.000      0.000      0.000 
      23      0.000      0.000      0.000      0.000 
      24      0.000      4.900      0.000      0.000 
      25      2.300      6.089      0.000      0.000 
      26      2.500      6.000      0.000      0.000 
      27      0.000      0.000      0.000      0.000 
      28      0.000      0.000      0.000      0.000 
      29      0.000      0.000      0.000      0.000 
      30      0.000     14.000      0.000      0.000 
      31      0.000      4.900      0.000      0.000 
      32      0.000     14.000      0.000      0.000 
      33      0.000      4.900      0.000      0.000 
      34      0.000     14.000      0.000      0.000 
      35      0.000      0.000      0.000      0.000 
      36      0.000      0.000      0.000      0.000 

Improper Coeffs 

       1     10.500      -1       2 
       2     10.500      -1       2 
       3      2.500      -1       2 
       4      2.500      -1       2 
       5      2.500      -1       2 
       6      0.000      -1       2 
       7      0.000      -1       2 
       8      2.500      -1       2 
       9      2.500      -1       2 
      10      2.500      -1       2 

Atoms 

     1      1      1 -0.14780000    -0.023816      1.481760     -0.626437
     2      1      2 -0.26330000    -0.588588      0.580097      0.173339
     3      1      3 0.65450000     -1.524480      0.994735      1.257401
     4      1      4 -0.44470000    -1.811990      2.162446      1.492146
     5      1      5 -1.12420000    -2.037936     -0.036441      1.999525
     6      1      6 0.47380000     -3.065761      0.232509      2.988765
     7      1      7 -1.13500000    -4.345218      0.604546      2.411999
     8      1      8 0.65310000     -5.082780     -0.333785      1.738609
     9      1      9 -0.43410000    -4.762602     -1.516296      1.725824
    10      1     10 -0.27180000    -6.294932      0.197566      1.052018
    11      1     11 -0.13950000    -7.095333     -0.606126      0.355608
    12      1     12 0.14500000      0.658425      1.193097     -1.417215
    13      1     13 0.14500000     -0.240247      2.536252     -0.493747
    14      1     14 0.14870000     -0.381736     -0.480316      0.058813
    15      1     15 0.52040000     -1.986756     -0.977108      1.636911
    16      1     16 0.12440000     -2.734059      1.051606      3.623687
    17      1     17 0.12440000     -3.200866     -0.667057      3.585832
    18      1     18 0.52650000     -4.483109      1.581716      2.199241
    19      1     19 0.14960000     -6.503654      1.260190      1.139251
    20      1     20 0.14750000     -6.871430     -1.664947      0.283143
    21      1     21 0.14750000     -7.979133     -0.232445     -0.147712

Bonds 

     1      1      2      1
     2      2      3      2
     3      3      4      3
     4      4      5      3
     5      5      6      5
     6      6      7      6
     7      7      8      7
     8      8      9      8
     9      9     10      8
    10     10     11     10
    11     11     12      1
    12     12     13      1
    13     13     14      2
    14     14     15      5
    15     15     16      6
    16     16     17      6
    17     17     18      7
    18     18     19     10
    19     19     20     11
    20     20     21     11

Angles 

     1      1      1      2      3
     2      2      2      3      4
     3      3      2      3      5
     4      4      3      5      6
     5      5      5      6      7
     6      6      6      7      8
     7      7      7      8      9
     8      8      7      8     10
     9      9      8     10     11
    10     10      2      1     12
    11     11      2      1     13
    12     12      1      2     14
    13     13      3      5     15
    14     14      5      6     16
    15     15      5      6     17
    16     16      6      7     18
    17     17      8     10     19
    18     18     10     11     20
    19     19     10     11     21
    20     20      7      6     17
    21     21     20     11     21
    22     22      3      2     14
    23     23      8      7     18
    24     24     16      6     17
    25     25      4      3      5
    26     26      6      5     15
    27     27     11     10     19
    28     28     12      1     13
    29     29      7      6     16
    30     30      9      8     10

Dihedrals

     1      1      4      3      2      1 
     2      2      6      5      3      2 
     3      3      7      6      5      3 
     4      4      8      7      6      5 
     5      5      9      8      7      6 
     6      6     11     10      8      7 
     7      7     12      1      2      3 
     8      8     20     11     10      8 
     9      9     18      7      6     17 
    10     10     14      2      3      5 
    11     11     19     10      8      7 
    12     12      6      5      3      4 
    13     13     17      6      5     15 
    14     14     15      5      3      4 
    15     15     14      2      1     13 
    16     16      5      3      2      1 
    17     17     20     11     10     19 
    18     18     16      6      7      8 
    19     19     15      5      6      7 
    20     20     17      6      5      3 
    21     21     16      6      5     15 
    22     22     21     11     10     19 
    23     23     16      6      5      3 
    24     24     18      7      8      9 
    25     25     10      8      7      6 
    26     26     11     10      8      9 
    27     27     19     10      8      9 
    28     28     14      2      3      4 
    29     29     18      7      6      5 
    30     30     13      1      2      3 
    31     31     18      7      8     10 
    32     32     21     11     10      8 
    33     33     15      5      3      2 
    34     34     14      2      1     12 
    35     35     18      7      6     16 
    36     36     17      6      7      8 

Impropers

     1      1      3      2      4      5 
     2      2      8      9     10      7 
     3      3      1      2     12     13 
     4      4      2      1      3     14 
     5      5      5      3      6     15 
     6      6      6      5      7     16 
     7      7      6     17      5      7 
     8      8      7     18      6      8 
     9      9     10     19     11      8 
    10     10     11     10     20     21 

