LAMMPS data file Created by LigParGen - (Written by Leela S. Dodda)

      13 atoms
      12 bonds
      18 angles
      18 dihedrals
       6 impropers
 
      13 atom types
      12 bond types
      18 angle types
      18 dihedral types
       6 improper types
 
   -2.913450    47.086550 xlo xhi
    0.109810    50.109810 ylo yhi
   -2.387800    47.612200 zlo zhi

Masses

       1     12.011  
       2     12.011  
       3     12.011  
       4     12.011  
       5     15.999  
       6     14.007  
       7      1.008  
       8      1.008  
       9      1.008  
      10      1.008  
      11      1.008  
      12      1.008  
      13      1.008  

Pair Coeffs 

       1      0.066  3.5000000 
       2      0.076  3.5500000 
       3      0.076  3.5500000 
       4      0.070  3.5500000 
       5      0.210  2.9600000 
       6      0.170  3.2500000 
       7      0.030  2.5000000 
       8      0.030  2.5000000 
       9      0.030  2.5000000 
      10      0.030  2.5000000 
      11      0.030  2.5000000 
      12      0.000  0.0000000 
      13      0.000  0.0000000 

Bond Coeffs 

       1   317.0000     1.5100 
       2   549.0000     1.3400 
       3   410.0000     1.4440 
       4   570.0000     1.2290 
       5   490.0000     1.3350 
       6   340.0000     1.0900 
       7   340.0000     1.0900 
       8   340.0000     1.0900 
       9   340.0000     1.0800 
      10   340.0000     1.0800 
      11   434.0000     1.0100 
      12   434.0000     1.0100 

Angle Coeffs 

       1     70.000    124.000
       2     70.000    119.700
       3     80.000    125.300
       4     70.000    115.500
       5     35.000    109.500
       6     35.000    109.500
       7     35.000    109.500
       8     35.000    120.000
       9     35.000    120.000
      10     35.000    119.800
      11     35.000    119.800
      12     35.000    117.000
      13     80.000    122.900
      14     85.000    120.700
      15     35.000    120.000
      16     33.000    107.800
      17     33.000    107.800
      18     33.000    107.800

Dihedral Coeffs  

       1      0.900      0.230     -0.505      0.000 
       2      0.000      0.000     -0.372      0.000 
       3      0.000     14.000      0.000      0.000 
       4      0.000      4.900      0.000      0.000 
       5      0.000      4.900      0.000      0.000 
       6      0.000      0.000     -0.372      0.000 
       7      0.000     14.000      0.000      0.000 
       8      0.000      0.000     -0.372      0.000 
       9      2.000      0.000      0.000      0.000 
      10      0.000      4.900      0.000      0.000 
      11      0.000     14.000      0.000      0.000 
      12      0.000      0.000     -0.372      0.000 
      13      0.000      4.900      0.000      0.000 
      14      0.000      0.000     -0.372      0.000 
      15      0.000     14.000      0.000      0.000 
      16      0.000      0.000     -0.372      0.000 
      17      2.500      6.000      0.000      0.000 
      18      2.000      0.000      0.000      0.000 

Improper Coeffs 

       1      2.500      -1       2 
       2     10.500      -1       2 
       3      0.000      -1       2 
       4      0.000      -1       2 
       5      2.500      -1       2 
       6      2.500      -1       2 

Atoms 

     1      1      1 -0.19400000    1.000532      0.943674      0.000247
     2      1      2 -0.15200000   -0.499660      1.018474      0.020284
     3      1      3 -0.21240000   -1.224321      1.077438      1.141053
     4      1      4 0.67670000    -1.145206      1.119546     -1.337527
     5      1      5 -0.44470000   -0.583288      1.672965     -2.269228
     6      1      6 -1.31040000   -2.395610      0.574732     -1.457970
     7      1      7 0.10210000     1.408095      0.941232      1.012357
     8      1      8 0.10210000     1.408606      1.792827     -0.552983
     9      1      9 0.10210000     1.338918      0.040527     -0.517764
    10      1     10 0.13440000    -0.750076      1.053209      2.116329
    11      1     11 0.13440000    -2.302245      1.192070      1.127396
    12      1     12 0.53080000    -2.755140     -0.063397     -0.768421
    13      1     13 0.53090000    -2.819605      0.583702     -2.372772

Bonds 

     1      1      2      1
     2      2      3      2
     3      3      4      2
     4      4      5      4
     5      5      6      4
     6      6      7      1
     7      7      8      1
     8      8      9      1
     9      9     10      3
    10     10     11      3
    11     11     12      6
    12     12     13      6

Angles 

     1      1      1      2      3
     2      2      1      2      4
     3      3      2      4      5
     4      4      2      4      6
     5      5      2      1      7
     6      6      2      1      8
     7      7      2      1      9
     8      8      2      3     10
     9      9      2      3     11
    10     10      4      6     12
    11     11      4      6     13
    12     12     10      3     11
    13     13      5      4      6
    14     14      3      2      4
    15     15     12      6     13
    16     16      7      1      8
    17     17      7      1      9
    18     18      8      1      9

Dihedrals

     1      1      5      4      2      1 
     2      2      7      1      2      3 
     3      3     10      3      2      1 
     4      4     12      6      4      2 
     5      5     12      6      4      5 
     6      6      9      1      2      4 
     7      7     11      3      2      1 
     8      8      8      1      2      4 
     9      9      6      4      2      1 
    10     10     13      6      4      5 
    11     11     11      3      2      4 
    12     12      9      1      2      3 
    13     13     13      6      4      2 
    14     14      8      1      2      3 
    15     15     10      3      2      4 
    16     16      7      1      2      4 
    17     17      5      4      2      3 
    18     18      6      4      2      3 

Impropers

     1      1      2      1      3      4 
     2      2      4      2      5      6 
     3      3      1      2      7      8 
     4      4      1      9      7      2 
     5      5      3      2     11     10 
     6      6      6     12      4     13 

