LAMMPS data file Created by LigParGen - (Written by Leela S. Dodda)

       6 atoms
       5 bonds
       7 angles
       3 dihedrals
       2 impropers
 
       6 atom types
       5 bond types
       7 angle types
       3 dihedral types
       2 improper types
 
   -0.779930    49.220070 xlo xhi
    0.103150    50.103150 ylo yhi
   -0.929670    49.070330 zlo zhi

Masses

       1     15.999  
       2     12.011  
       3      1.008  
       4      1.008  
       5      1.008  
       6      1.008  

Pair Coeffs 

       1      0.170  3.1200000 
       2      0.066  3.5000000 
       3      0.000  0.0000000 
       4      0.030  2.5000000 
       5      0.030  2.5000000 
       6      0.030  2.5000000 

Bond Coeffs 

       1   320.0000     1.4100 
       2   553.0000     0.9450 
       3   340.0000     1.0900 
       4   340.0000     1.0900 
       5   340.0000     1.0900 

Angle Coeffs 

       1     55.000    108.500
       2     35.000    109.500
       3     35.000    109.500
       4     35.000    109.500
       5     33.000    107.800
       6     33.000    107.800
       7     33.000    107.800

Dihedral Coeffs  

       1      0.000      0.000      0.352      0.000 
       2      0.000      0.000      0.352      0.000 
       3      0.000      0.000      0.352      0.000 

Improper Coeffs 

       1      0.000      -1       2 
       2      0.000      -1       2 

Atoms 

     1      1      1 -0.68730000   1.009400      1.000199     -0.001739 
     2      1      2 0.05080000   -0.414962      1.000025     -0.016085
     3      1      3 0.40620000    1.328772      0.999771     -0.908662
     4      1      4 0.07680000   -0.738691      1.001008      1.025255
     5      1      5 0.07680000   -0.822652      0.106397     -0.505016
     6      1      6 0.07670000   -0.822866      1.892601     -0.506754

Bonds 

     1      1      2      1
     2      2      3      1
     3      3      4      2
     4      4      5      2
     5      5      6      2

Angles 

     1      1      2      1      3
     2      2      1      2      4
     3      3      1      2      5
     4      4      1      2      6
     5      5      4      2      6
     6      6      5      2      6
     7      7      4      2      5

Dihedrals

     1      1      4      2      1      3 
     2      2      6      2      1      3 
     3      3      5      2      1      3 

Impropers

     1      1      2      1      4      5 
     2      2      2      1      4      6 

