LAMMPS data file Created by LigParGen - (Written by Leela S. Dodda)

      15 atoms
      14 bonds
      22 angles
      19 dihedrals
       7 impropers
 
      15 atom types
      14 bond types
      22 angle types
      19 dihedral types
       7 improper types
 
   -2.993530    47.006470 xlo xhi
    0.096950    50.096950 ylo yhi
   -3.139190    46.860810 zlo zhi

Masses

       1     15.999  
       2     12.011  
       3     15.999  
       4     12.011  
       5     12.011  
       6     12.011  
       7     12.011  
       8      1.008  
       9      1.008  
      10      1.008  
      11      1.008  
      12      1.008  
      13      1.008  
      14      1.008  
      15      1.008  

Pair Coeffs 

       1      0.210  2.9600000 
       2      0.070  3.5500000 
       3      0.140  2.9000000 
       4      0.066  3.5000000 
       5      0.076  3.5500000 
       6      0.076  3.5500000 
       7      0.066  3.5000000 
       8      0.030  2.5000000 
       9      0.030  2.5000000 
      10      0.030  2.5000000 
      11      0.030  2.5000000 
      12      0.030  2.5000000 
      13      0.030  2.5000000 
      14      0.030  2.5000000 
      15      0.030  2.5000000 

Bond Coeffs 

       1   570.0000     1.2290 
       2   214.0000     1.3270 
       3   320.0000     1.4100 
       4   410.0000     1.4440 
       5   549.0000     1.3400 
       6   317.0000     1.5100 
       7   340.0000     1.0900 
       8   340.0000     1.0900 
       9   340.0000     1.0900 
      10   340.0000     1.0800 
      11   340.0000     1.0800 
      12   340.0000     1.0900 
      13   340.0000     1.0900 
      14   340.0000     1.0900 

Angle Coeffs 

       1     83.000    123.400
       2     83.000    116.900
       3     80.000    125.300
       4     85.000    120.700
       5     70.000    119.700
       6     35.000    109.500
       7     35.000    109.500
       8     35.000    109.500
       9     35.000    120.000
      10     35.000    120.000
      11     35.000    109.500
      12     35.000    109.500
      13     35.000    109.500
      14     33.000    107.800
      15     35.000    117.000
      16     33.000    107.800
      17     33.000    107.800
      18     70.000    124.000
      19     81.000    111.400
      20     33.000    107.800
      21     33.000    107.800
      22     33.000    107.800

Dihedral Coeffs  

       1      0.000      5.124      0.000      0.000 
       2      2.500      6.000      0.000      0.000 
       3      0.000      0.000      0.198      0.000 
       4      0.000     14.000      0.000      0.000 
       5      0.000      0.000     -0.372      0.000 
       6      0.000      0.000     -0.372      0.000 
       7      4.669      5.124      0.000      0.000 
       8      0.000     14.000      0.000      0.000 
       9      0.000      0.000      0.198      0.000 
      10      0.000      0.000     -0.372      0.000 
      11      3.200     -3.000      0.000      0.000 
      12      0.900      0.230     -0.505      0.000 
      13      0.000      0.000     -0.372      0.000 
      14      0.000      0.000      0.198      0.000 
      15      0.000      0.000     -0.372      0.000 
      16      0.900      0.230     -0.505      0.000 
      17      0.000     14.000      0.000      0.000 
      18      0.000     14.000      0.000      0.000 
      19      0.000      0.000     -0.372      0.000 

Improper Coeffs 

       1     10.500      -1       2 
       2      2.500      -1       2 
       3      0.000      -1       2 
       4      0.000      -1       2 
       5      2.500      -1       2 
       6      0.000      -1       2 
       7      0.000      -1       2 

Atoms 

     1      1      1 -0.44270000    1.000  1.00000  0.00000
     2      1      2 0.48210000   -0.221  1.00000  0.00000
     3      1      3 -0.36020000   -1.008  1.00000  1.11032
     4      1      4 -0.05280000   -0.306  1.00000  2.35313
     5      1      5 -0.16210000   -1.057  0.99843 -1.23903
     6      1      6 -0.16540000   -2.402  0.99994 -1.18773
     7      1      7 -0.20110000   -0.344  0.99676 -2.55999
     8      1      8 0.10160000   -1.053  1.00132  3.15293
     9      1      9 0.10160000    0.305  1.90185  2.45053
    10      1     10 0.10160000    0.303  0.09695  2.45165
    11      1     11 0.14430000   -2.949  1.00236 -0.25077
    12      1     12 0.14430000   -2.994  0.99760 -2.09706
    13      1     13 0.10290000    0.743  0.99689 -2.45913
    14      1     14 0.10290000   -0.624  1.88449 -3.13919
    15      1     15 0.10290000   -0.623  0.10661 -3.13670

Bonds 

     1      1      2      1
     2      2      3      2
     3      3      4      3
     4      4      5      2
     5      5      6      5
     6      6      7      5
     7      7      8      4
     8      8      9      4
     9      9     10      4
    10     10     11      6
    11     11     12      6
    12     12     13      7
    13     13     14      7
    14     14     15      7

Angles 

     1      1      1      2      3
     2      2      2      3      4
     3      3      1      2      5
     4      4      2      5      6
     5      5      2      5      7
     6      6      3      4      8
     7      7      3      4      9
     8      8      3      4     10
     9      9      5      6     11
    10     10      5      6     12
    11     11      5      7     13
    12     12      5      7     14
    13     13      5      7     15
    14     14     14      7     15
    15     15     11      6     12
    16     16      9      4     10
    17     17      8      4     10
    18     18      6      5      7
    19     19      3      2      5
    20     20      8      4      9
    21     21     13      7     15
    22     22     13      7     14

Dihedrals

     1      1      4      3      2      1 
     2      2      6      5      2      1 
     3      3      8      4      3      2 
     4      4     11      6      5      2 
     5      5     13      7      5      2 
     6      6     14      7      5      6 
     7      7      5      2      3      4 
     8      8     12      6      5      7 
     9      9     10      4      3      2 
    10     10     14      7      5      2 
    11     11      6      5      2      3 
    12     12      7      5      2      1 
    13     13     15      7      5      2 
    14     14      9      4      3      2 
    15     15     13      7      5      6 
    16     16      7      5      2      3 
    17     17     12      6      5      2 
    18     18     11      6      5      7 
    19     19     15      7      5      6 

Impropers

     1      1      2      1      3      5 
     2      2      5      2      6      7 
     3      3      4      9      3      8 
     4      4      4     10      3      8 
     5      5      6     11     12      5 
     6      6      7     13      5     14 
     7      7      7     13      5     15 

