LAMMPS data file Created by LigParGen - (Written by Leela S. Dodda)

      10 atoms
      10 bonds
      15 angles
      20 dihedrals
       5 impropers
 
      10 atom types
      10 bond types
      15 angle types
      20 dihedral types
       5 improper types
 
   -1.825530    48.174470 xlo xhi
    0.998890    50.998890 ylo yhi
   -0.929660    49.070340 zlo zhi

Masses

       1     14.007  
       2     12.011  
       3     12.011  
       4     12.011  
       5     12.011  
       6      1.008  
       7      1.008  
       8      1.008  
       9      1.008  
      10      1.008  

Pair Coeffs 

       1      0.170  3.2500000 
       2      0.070  3.5500000 
       3      0.070  3.5500000 
       4      0.070  3.5500000 
       5      0.070  3.5500000 
       6      0.000  0.0000000 
       7      0.030  2.4200000 
       8      0.030  2.4200000 
       9      0.030  2.4200000 
      10      0.030  2.4200000 

Bond Coeffs 

       1   427.0000     1.3810 
       2   546.0000     1.3670 
       3   469.0000     1.4240 
       4   427.0000     1.3810 
       5   434.0000     1.0100 
       6   367.0000     1.0800 
       7   367.0000     1.0800 
       8   367.0000     1.0800 
       9   367.0000     1.0800 
      10   546.0000     1.3670 

Angle Coeffs 

       1     70.000    107.700
       2     70.000    107.300
       3     70.000    109.800
       4     35.000    120.000
       5     35.000    121.600
       6     35.000    125.700
       7     35.000    127.500
       8     35.000    121.600
       9     70.000    107.700
      10     35.000    132.100
      11     35.000    127.500
      12     35.000    120.000
      13     35.000    132.100
      14     35.000    125.700
      15     70.000    107.300

Dihedral Coeffs  

       1      0.000      7.250      0.000      0.000 
       2      0.000      5.000      0.000      0.000 
       3      0.000      5.000      0.000      0.000 
       4      0.000      7.250      0.000      0.000 
       5      0.000      7.250      0.000      0.000 
       6      0.000      5.000      0.000      0.000 
       7      0.000      7.250      0.000      0.000 
       8      0.000      7.250      0.000      0.000 
       9      0.000      5.000      0.000      0.000 
      10      0.000      5.000      0.000      0.000 
      11      0.000      2.170      0.000      0.000 
      12      0.000      7.250      0.000      0.000 
      13      0.000      5.000      0.000      0.000 
      14      0.000      5.000      0.000      0.000 
      15      0.000      7.250      0.000      0.000 
      16      0.000      7.250      0.000      0.000 
      17      0.000      5.000      0.000      0.000 
      18      0.000      7.250      0.000      0.000 
      19      0.000      7.250      0.000      0.000 
      20      0.000      7.250      0.000      0.000 

Improper Coeffs 

       1      2.500      -1       2 
       2      2.500      -1       2 
       3      2.500      -1       2 
       4      2.500      -1       2 
       5      2.500      -1       2 

Atoms 

     1      1      1 -0.53640000    0.999527      1.000453      0.000849
     2      1      2 -0.07800000   -0.375436      1.000073     -0.004723
     3      1      3 -0.22030000   -0.798084      1.000115      1.305658
     4      1      4 -0.21960000    0.364562      1.000124      2.129271
     5      1      5 -0.07730000    1.460708      1.000595      1.296143
     6      1      6 0.42570000     1.580730      1.000921     -0.820301
     7      1      7 0.18340000    -0.930037      1.000050     -0.928900
     8      1      8 0.16980000    -1.825197      0.999765      1.635495
     9      1      9 0.16960000     0.393731      0.999987      3.207664
    10      1     10 0.18310000     2.516496      1.000917      1.512844

Bonds 

     1      1      2      1
     2      2      3      2
     3      3      4      3
     4      4      5      1
     5      5      6      1
     6      6      7      2
     7      7      8      3
     8      8      9      4
     9      9     10      5
    10     10      5      4

Angles 

     1      1      1      2      3
     2      2      2      3      4
     3      3      2      1      5
     4      4      2      1      6
     5      5      1      2      7
     6      6      2      3      8
     7      7      3      4      9
     8      8      1      5     10
     9      9      1      5      4
    10     10      4      5     10
    11     11      4      3      8
    12     12      5      1      6
    13     13      3      2      7
    14     14      5      4      9
    15     15      3      4      5

Dihedrals

     1      1      4      3      2      1 
     2      2      5      1      2      3 
     3      3     10      5      1      2 
     4      4     10      5      4      9 
     5      5      3      4      5      1 
     6      6      6      1      5      4 
     7      7      9      4      3      2 
     8      8      8      3      4      5 
     9      9     10      5      1      6 
    10     10      4      5      1      2 
    11     11      5      4      3      2 
    12     12      9      4      5      1 
    13     13      7      2      1      5 
    14     14      7      2      1      6 
    15     15      7      2      3      4 
    16     16      8      3      2      7 
    17     17      6      1      2      3 
    18     18      9      4      3      8 
    19     19     10      5      4      3 
    20     20      8      3      2      1 

Impropers

     1      1      1      2      5      6 
     2      2      2      1      3      7 
     3      3      3      2      4      8 
     4      4      4      9      3      5 
     5      5      5      1     10      4 

