LAMMPS data file Created by LigParGen - (Written by Leela S. Dodda)

      65 atoms
      68 bonds
     119 angles
     168 dihedrals
      39 impropers
 
      65 atom types
      68 bond types
     119 angle types
     168 dihedral types
      39 improper types
 
   -2.191450    47.808550 xlo xhi
   -6.862730    43.137270 ylo yhi
   -0.952820    49.047180 zlo zhi

Masses

       1     12.011  
       2     12.011  
       3     12.011  
       4     12.011  
       5     12.011  
       6     12.011  
       7      1.008  
       8      1.008  
       9      1.008  
      10      1.008  
      11     12.011  
      12     12.011  
      13     12.011  
      14     12.011  
      15     12.011  
      16     15.999  
      17     12.011  
      18     12.011  
      19     12.011  
      20      1.008  
      21     12.011  
      22      1.008  
      23      1.008  
      24     12.011  
      25      1.008  
      26     12.011  
      27      1.008  
      28     12.011  
      29      1.008  
      30     12.011  
      31     15.999  
      32     15.999  
      33      1.008  
      34     12.011  
      35     14.007  
      36     14.007  
      37     35.450  
      38     12.011  
      39      1.008  
      40      1.008  
      41     12.011  
      42      1.008  
      43      1.008  
      44      1.008  
      45     12.011  
      46      1.008  
      47      1.008  
      48     12.011  
      49      1.008  
      50      1.008  
      51      1.008  
      52     12.011  
      53      1.008  
      54      1.008  
      55     12.011  
      56      1.008  
      57      1.008  
      58     12.011  
      59      1.008  
      60      1.008  
      61      1.008  
      62     12.011  
      63      1.008  
      64      1.008  
      65      1.008  

Pair Coeffs 

       1      0.070  3.5500000 
       2      0.070  3.5500000 
       3      0.070  3.5500000 
       4      0.070  3.5500000 
       5      0.070  3.5500000 
       6      0.070  3.5500000 
       7      0.030  2.4200000 
       8      0.030  2.4200000 
       9      0.030  2.4200000 
      10      0.030  2.4200000 
      11      0.070  3.5500000 
      12      0.080  3.5000000 
      13      0.080  3.5000000 
      14      0.076  3.5500000 
      15      0.070  3.5500000 
      16      0.140  2.9000000 
      17      0.070  3.5500000 
      18      0.070  3.5500000 
      19      0.070  3.5500000 
      20      0.030  2.4200000 
      21      0.070  3.5500000 
      22      0.030  2.4200000 
      23      0.030  2.4200000 
      24      0.076  3.5500000 
      25      0.030  2.4200000 
      26      0.076  3.5500000 
      27      0.030  2.4200000 
      28      0.076  3.5500000 
      29      0.030  2.4200000 
      30      0.070  3.5500000 
      31      0.210  2.9600000 
      32      0.170  3.1200000 
      33      0.000  0.0000000 
      34      0.066  3.5000000 
      35      0.170  3.3000000 
      36      0.170  3.3000000 
      37      0.300  3.4000000 
      38      0.066  3.5000000 
      39      0.030  2.5000000 
      40      0.030  2.5000000 
      41      0.066  3.5000000 
      42      0.030  2.5000000 
      43      0.030  2.5000000 
      44      0.030  2.5000000 
      45      0.066  3.5000000 
      46      0.030  2.5000000 
      47      0.030  2.5000000 
      48      0.066  3.5000000 
      49      0.030  2.5000000 
      50      0.030  2.5000000 
      51      0.030  2.5000000 
      52      0.066  3.5000000 
      53      0.030  2.5000000 
      54      0.030  2.5000000 
      55      0.066  3.5000000 
      56      0.030  2.5000000 
      57      0.030  2.5000000 
      58      0.066  3.5000000 
      59      0.030  2.5000000 
      60      0.030  2.5000000 
      61      0.030  2.5000000 
      62      0.066  3.5000000 
      63      0.030  2.5000000 
      64      0.030  2.5000000 
      65      0.030  2.5000000 

Bond Coeffs 

       1   469.0000     1.4000 
       2   469.0000     1.4000 
       3   469.0000     1.4000 
       4   469.0000     1.4000 
       5   469.0000     1.4000 
       6   367.0000     1.0800 
       7   367.0000     1.0800 
       8   367.0000     1.0800 
       9   367.0000     1.0800 
      10   385.0000     1.4600 
      11   469.0000     1.4000 
      12   469.0000     1.4000 
      13   427.0000     1.4330 
      14   469.0000     1.4040 
      15   450.0000     1.3700 
      16   469.0000     1.4000 
      17   469.0000     1.4000 
      18   469.0000     1.4000 
      19   367.0000     1.0800 
      20   469.0000     1.4040 
      21   367.0000     1.0800 
      22   367.0000     1.0800 
      23   427.0000     1.4330 
      24   374.4600     1.1200 
      25   549.0000     1.3400 
      26   367.0000     1.0800 
      27   549.0000     1.3400 
      28   367.0000     1.0800 
      29   400.0000     1.4900 
      30   570.0000     1.2290 
      31   450.0000     1.3640 
      32   553.0000     0.9450 
      33   317.0000     1.5100 
      34   382.0000     1.4480 
      35   481.0000     1.3400 
      36   245.0000     1.7810 
      37   382.0000     1.4480 
      38   340.0000     1.0900 
      39   340.0000     1.0900 
      40   268.0000     1.5290 
      41   340.0000     1.0900 
      42   340.0000     1.0900 
      43   340.0000     1.0900 
      44   382.0000     1.4480 
      45   340.0000     1.0900 
      46   340.0000     1.0900 
      47   268.0000     1.5290 
      48   340.0000     1.0900 
      49   340.0000     1.0900 
      50   340.0000     1.0900 
      51   382.0000     1.4480 
      52   340.0000     1.0900 
      53   340.0000     1.0900 
      54   382.0000     1.4480 
      55   340.0000     1.0900 
      56   340.0000     1.0900 
      57   268.0000     1.5290 
      58   340.0000     1.0900 
      59   340.0000     1.0900 
      60   340.0000     1.0900 
      61   268.0000     1.5290 
      62   340.0000     1.0900 
      63   340.0000     1.0900 
      64   340.0000     1.0900 
      65   469.0000     1.4000 
      66   450.0000     1.3640 
      67   469.0000     1.4000 
      68   317.0000     1.5100 

Angle Coeffs 

       1     63.000    120.000
       2     63.000    120.000
       3     63.000    120.000
       4     63.000    120.000
       5     35.000    120.000
       6     35.000    120.000
       7     35.000    120.000
       8     35.000    120.000
       9     63.000    120.000
      10     63.000    120.000
      11     63.000    120.000
      12     70.000    124.000
      13     85.000    134.900
      14     45.740    115.690
      15     63.000    120.000
      16     63.000    120.000
      17     63.000    120.000
      18     35.000    120.000
      19     85.000    134.900
      20     35.000    120.000
      21     35.000    120.000
      22     70.000    124.000
      23     45.740    115.690
      24     85.000    117.000
      25     60.430    118.760
      26     85.000    117.000
      27     60.430    118.760
      28     85.000    120.000
      29     80.000    120.400
      30     70.000    120.000
      31     35.000    113.000
      32     70.000    124.000
      33     80.000    111.200
      34     70.000    120.000
      35     51.650    110.580
      36     51.800    107.200
      37     35.000    109.500
      38     35.000    109.500
      39     56.200    109.470
      40     37.500    110.700
      41     37.500    110.700
      42     37.500    110.700
      43     51.800    107.200
      44     35.000    109.500
      45     35.000    109.500
      46     56.200    109.470
      47     37.500    110.700
      48     37.500    110.700
      49     37.500    110.700
      50     50.000    116.000
      51     35.000    109.500
      52     35.000    109.500
      53     50.000    116.000
      54     35.000    109.500
      55     35.000    109.500
      56     56.200    109.470
      57     37.500    110.700
      58     37.500    110.700
      59     37.500    110.700
      60     56.200    109.470
      61     37.500    110.700
      62     37.500    110.700
      63     37.500    110.700
      64     33.000    107.800
      65     35.000    120.000
      66     37.500    110.700
      67     37.500    110.700
      68     85.000    120.000
      69     45.740    115.690
      70     33.000    107.800
      71     33.000    107.800
      72     70.000    120.000
      73     35.000    120.000
      74     70.000    123.000
      75     63.000    120.000
      76     63.000    112.400
      77     33.000    107.800
      78     33.000    107.800
      79     70.000    120.000
      80     51.650    110.580
      81     77.270    119.730
      82     63.000    120.000
      83     33.000    107.800
      84     51.800    107.200
      85     37.500    110.700
      86     85.000    134.900
      87     33.000    107.800
      88     33.000    107.800
      89     60.430    118.760
      90     37.500    110.700
      91     33.000    107.800
      92     35.000    120.000
      93     35.000    120.000
      94     37.500    110.700
      95     80.000    121.000
      96     51.800    107.200
      97     35.000    120.000
      98     33.000    107.800
      99     80.000    111.200
     100     33.000    107.800
     101     37.500    110.700
     102     33.000    107.800
     103     69.000    109.800
     104     63.000    120.000
     105     33.000    107.800
     106     37.500    110.700
     107     33.000    107.800
     108     33.000    107.800
     109     63.000    120.000
     110     70.000    124.000
     111     37.500    110.700
     112     33.000    107.800
     113     75.000    111.000
     114     60.430    118.760
     115     63.000    120.000
     116     35.000    120.000
     117     63.000    120.000
     118     35.000    120.000
     119     70.000    120.000

Dihedral Coeffs  

       1      0.000      7.250      0.000      0.000 
       2      0.000      7.250      0.000      0.000 
       3      0.000      7.250      0.000      0.000 
       4      0.000      2.170      0.000      0.000 
       5      0.000      7.250      0.000      0.000 
       6      0.000      7.250      0.000      0.000 
       7      0.000      7.000      0.000      0.000 
       8      0.000      7.250      0.000      0.000 
       9      0.000      7.250      0.000      0.000 
      10      0.000      7.250      0.000      0.000 
      11      0.000      7.250      0.000      0.000 
      12      0.000     14.000      0.000      0.000 
      13      0.000     14.000      0.000      0.000 
      14      0.000      2.100      0.000      0.000 
      15      4.000      5.000      0.000      0.000 
      16      0.416     -0.128      0.695      0.000 
      17      0.000      0.000      0.560      0.000 
      18     -1.013     -0.709      0.473      0.000 
      19      0.000      0.000      0.560      0.000 
      20     -1.013     -0.709      0.473      0.000 
      21     -7.582      3.431      3.198      0.000 
      22      0.000      0.000      0.560      0.000 
      23      0.000      0.000      0.560      0.000 
      24     -1.013     -0.709      0.473      0.000 
      25     -1.013     -0.709      0.473      0.000 
      26      0.000      7.250      0.000      0.000 
      27      0.000      7.250      0.000      0.000 
      28      0.000      7.250      0.000      0.000 
      29      0.000      0.000      0.300      0.000 
      30      0.000      7.250      0.000      0.000 
      31     -1.013     -0.709      0.473      0.000 
      32      0.000      7.250      0.000      0.000 
      33      0.000      0.000      0.300      0.000 
      34      0.000      7.250      0.000      0.000 
      35      0.416     -0.128      0.695      0.000 
      36      0.000      0.000      0.300      0.000 
      37      0.346      0.405     -0.904      0.000 
      38      0.000      7.250      0.000      0.000 
      39      0.000      7.250      0.000      0.000 
      40      0.000      7.250      0.000      0.000 
      41      0.000      0.000      0.560      0.000 
      42      0.000      7.000      0.000      0.000 
      43      0.000      0.000      0.300      0.000 
      44      0.000      0.000      0.300      0.000 
      45      0.000      2.170      0.000      0.000 
      46      0.000      7.250      0.000      0.000 
      47      0.000      7.250      0.000      0.000 
      48      1.500      5.000      0.000      0.000 
      49      0.000      7.250      0.000      0.000 
      50      0.000      7.250      0.000      0.000 
      51      0.000     14.000      0.000      0.000 
      52      0.000      7.250      0.000      0.000 
      53      0.000      0.000      0.560      0.000 
      54      0.000      5.500      0.000      0.000 
      55      0.000      7.250      0.000      0.000 
      56      0.000      7.250      0.000      0.000 
      57      0.000      7.250      0.000      0.000 
      58     -1.013     -0.709      0.473      0.000 
      59      0.000      7.250      0.000      0.000 
      60      0.000     14.000      0.000      0.000 
      61      0.000      0.000      0.300      0.000 
      62      0.000      0.000      0.300      0.000 
      63      0.000      7.000      0.000      0.000 
      64      0.000      2.100      0.000      0.000 
      65      0.416     -0.128      0.695      0.000 
      66      0.416     -0.128      0.695      0.000 
      67      0.000     14.000      0.000      0.000 
      68      0.000      7.250      0.000      0.000 
      69      0.000      7.000      0.000      0.000 
      70      0.000      3.000      0.000      0.000 
      71      0.416     -0.128      0.695      0.000 
      72      0.000      7.250      0.000      0.000 
      73      0.000      7.250      0.000      0.000 
      74      0.000      0.000      0.300      0.000 
      75      0.000      7.000      0.000      0.000 
      76      0.000      0.000      0.560      0.000 
      77      0.000      0.000      0.560      0.000 
      78      0.416     -0.128      0.695      0.000 
      79      0.000      2.170      0.000      0.000 
      80     -1.013     -0.709      0.473      0.000 
      81      0.416     -0.128      0.695      0.000 
      82      0.000      7.250      0.000      0.000 
      83      0.000      7.250      0.000      0.000 
      84      0.000      7.000      0.000      0.000 
      85      0.000      7.250      0.000      0.000 
      86      0.000      7.250      0.000      0.000 
      87      0.000      0.000      0.300      0.000 
      88      0.000      0.000      0.300      0.000 
      89      0.000      0.000      0.300      0.000 
      90      0.000      0.000      0.300      0.000 
      91      0.000      7.250      0.000      0.000 
      92      0.346      0.405     -0.904      0.000 
      93      0.000     -8.000      0.000      0.000 
      94      0.000      0.000      0.560      0.000 
      95      0.000      7.250      0.000      0.000 
      96      0.000      7.250      0.000      0.000 
      97      0.000      7.250      0.000      0.000 
      98      0.000      7.250      0.000      0.000 
      99      0.000      0.000     -0.372      0.000 
     100      0.416     -0.128      0.695      0.000 
     101      0.000      7.250      0.000      0.000 
     102      0.000      2.100      0.000      0.000 
     103      0.000      0.000      0.300      0.000 
     104     -1.013     -0.709      0.473      0.000 
     105      0.346      0.405     -0.904      0.000 
     106      0.000      0.000     -0.372      0.000 
     107     -1.013     -0.709      0.473      0.000 
     108      0.000      0.000     -0.372      0.000 
     109      0.000      2.100      0.000      0.000 
     110      0.000      7.250      0.000      0.000 
     111      0.000     -8.000      0.000      0.000 
     112      0.416     -0.128      0.695      0.000 
     113      0.000      7.250      0.000      0.000 
     114      0.000      0.000      0.560      0.000 
     115      0.000      7.250      0.000      0.000 
     116      0.000      0.000      0.560      0.000 
     117      0.000      0.000      0.560      0.000 
     118      0.000      3.000      0.000      0.000 
     119      0.000      7.250      0.000      0.000 
     120     -7.582      3.431      3.198      0.000 
     121      0.416     -0.128      0.695      0.000 
     122     -7.582      3.431      3.198      0.000 
     123      0.416     -0.128      0.695      0.000 
     124     -1.013     -0.709      0.473      0.000 
     125      0.000      7.250      0.000      0.000 
     126      0.000      0.000      0.300      0.000 
     127      0.000      7.250      0.000      0.000 
     128      0.000      0.000      0.560      0.000 
     129      0.000      0.000     -0.372      0.000 
     130      0.000      7.250      0.000      0.000 
     131      0.000     14.000      0.000      0.000 
     132      0.000      0.000      0.300      0.000 
     133      0.000      0.000      0.560      0.000 
     134      0.000      7.250      0.000      0.000 
     135      0.346      0.405     -0.904      0.000 
     136      0.000      7.250      0.000      0.000 
     137      0.346      0.405     -0.904      0.000 
     138      0.416     -0.128      0.695      0.000 
     139     -1.013     -0.709      0.473      0.000 
     140      0.416     -0.128      0.695      0.000 
     141      0.000      7.250      0.000      0.000 
     142      0.000      0.000      0.560      0.000 
     143      0.000     14.000      0.000      0.000 
     144     -7.582      3.431      3.198      0.000 
     145      0.000      2.170      0.000      0.000 
     146      0.000      7.250      0.000      0.000 
     147     -1.013     -0.709      0.473      0.000 
     148      0.000      7.000      0.000      0.000 
     149      0.000      7.250      0.000      0.000 
     150      0.000      7.250      0.000      0.000 
     151      0.000     -8.000      0.000      0.000 
     152      0.000     -8.000      0.000      0.000 
     153      0.000     14.000      0.000      0.000 
     154      0.000      0.000      0.560      0.000 
     155      0.000      7.250      0.000      0.000 
     156      0.416     -0.128      0.695      0.000 
     157      0.000      0.000      0.300      0.000 
     158      0.000      0.000      0.300      0.000 
     159      0.000      0.000      0.300      0.000 
     160      0.000      0.000      0.300      0.000 
     161      0.346      0.405     -0.904      0.000 
     162      0.000      0.000      0.300      0.000 
     163      0.000      0.000      0.300      0.000 
     164      0.000      0.000      0.300      0.000 
     165      0.000      0.000      0.300      0.000 
     166      0.000      7.250      0.000      0.000 
     167      0.000      0.000      0.300      0.000 
     168      1.500      5.000      0.000      0.000 

Improper Coeffs 

       1      2.500      -1       2 
       2      2.500      -1       2 
       3      2.500      -1       2 
       4      2.500      -1       2 
       5      2.500      -1       2 
       6      2.500      -1       2 
       7      2.500      -1       2 
       8      2.500      -1       2 
       9      2.500      -1       2 
      10      2.500      -1       2 
      11      2.500      -1       2 
      12      2.500      -1       2 
      13      2.500      -1       2 
      14      2.500      -1       2 
      15     10.500      -1       2 
      16      2.500      -1       2 
      17      0.000      -1       2 
      18      2.500      -1       2 
      19      0.000      -1       2 
      20      0.000      -1       2 
      21      0.000      -1       2 
      22      0.000      -1       2 
      23      0.000      -1       2 
      24      0.000      -1       2 
      25      0.000      -1       2 
      26      0.000      -1       2 
      27      0.000      -1       2 
      28      0.000      -1       2 
      29      0.000      -1       2 
      30      0.000      -1       2 
      31      0.000      -1       2 
      32      0.000      -1       2 
      33      0.000      -1       2 
      34      0.000      -1       2 
      35      0.000      -1       2 
      36      0.000      -1       2 
      37      0.000      -1       2 
      38      2.500      -1       2 
      39      2.500      -1       2 

Atoms 

     1      1      1 -0.09120000    1.000  1.00000  0.00000
     2      1      2 -0.16160000   -0.395  1.00000  0.00000
     3      1      3 -0.11930000   -1.092  1.00000  1.20858
     4      1      4 -0.14590000   -0.392  1.00000  2.41565
     5      1      5 0.00050000    1.003  1.00000  2.41212
     6      1      6 -0.09690000    1.697  1.00000  1.20883
     7      1      7 0.18200000    1.550  1.00120 -0.95237
     8      1      8 0.16230000   -0.943  1.00120 -0.95282
     9      1      9 0.16140000   -2.191  1.00120  1.20858
    10      1     10 0.17310000   -0.941  1.00120  3.36846
    11      1     11 0.02910000    1.776  0.99831  3.74474
    12      1     12 -0.07070000    1.935  2.18634  4.45905
    13      1     13 -0.11620000    2.316 -0.18988  4.23472
    14      1     14 0.14480000    2.636  2.18509  5.66462
    15      1     15 0.14870000    3.014 -0.19169  5.44210
    16      1     16 -0.22940000    3.176  0.99609  6.15493
    17      1     17 -0.10390000    3.606 -1.50544  5.98596
    18      1     18 0.09900000    3.425 -2.81324  5.19318
    19      1     19 -0.21410000    2.747 -2.81120  4.02061
    20      1     20 0.16330000    2.623 -3.72325  3.47464
    21      1     21 -0.06170000    2.155 -1.50483  3.46761
    22      1     22 0.16530000    4.077 -1.51112  6.80118
    23      1     23 0.14740000    1.687 -1.50299  2.65145
    24      1     24 -0.11080000    1.338  3.49672  3.91233
    25      1     25 0.16280000    0.802  3.49280  2.98617
    26      1     26 -0.16370000    1.488  4.65322  4.60233
    27      1     27 0.17060000    1.072  5.56118  4.21683
    28      1     28 -0.22680000    2.860  3.35795  6.48891
    29      1     29 0.19800000    3.396  3.36576  7.41565
    30      1     30 0.48220000    3.237  1.00169  1.21061
    31      1     31 -0.44250000    4.026  1.00315  2.15283
    32      1     32 -0.56430000    3.751  0.99987 -0.04537
    33      1     33 0.45390000    4.722  1.00213 -0.01610
    34      1     34 0.27070000    2.257  4.66522  5.93711
    35      1     35 -0.51000000    1.324  5.16744  6.95743
    36      1     36 -0.45950000    3.989 -4.06737  5.71304
    37      1     37 -0.21580000    3.588  5.80030  5.74569
    38      1     38 -0.06520000    2.047  5.36940  8.22170
    39      1     39 0.11520000    2.165  6.41770  8.40052
    40      1     40 0.11520000    3.011  4.90785  8.15776
    41      1     41 -0.23060000    1.247  4.73768  9.37577
    42      1     42 0.08810000    1.808  3.92826  9.79619
    43      1     43 0.08810000    1.066  5.47536 10.12971
    44      1     44 0.08810000    0.314  4.36946  9.00305
    45      1     45 -0.02900000    0.752  6.44513  6.50937
    46      1     46 0.10480000   -0.310  6.34453  6.41510
    47      1     47 0.10480000    1.171  6.71078  5.56118
    48      1     48 -0.26300000    1.074  7.54037  7.54266
    49      1     49 0.09460000    0.658  8.47131  7.21678
    50      1     50 0.09460000    0.651  7.27364  8.48843
    51      1     51 0.09460000    2.135  7.63746  7.63885
    52      1     52 -0.01810000    2.914 -4.88277  6.29727
    53      1     53 0.11410000    3.341 -5.72960  6.79424
    54      1     54 0.11410000    2.364 -4.29415  7.00235
    55      1     55 -0.03480000    4.626 -4.80937  4.61637
    56      1     56 0.09670000    3.873 -5.18092  3.95352
    57      1     57 0.09670000    5.284 -4.15667  4.08027
    58      1     58 -0.30050000    1.971 -5.36407  5.17878
    59      1     59 0.09420000    1.619 -6.34704  5.40979
    60      1     60 0.09420000    1.140 -4.69552  5.10243
    61      1     61 0.09420000    2.503 -5.38435  4.25018
    62      1     62 -0.23630000    5.429 -5.98940  5.19382
    63      1     63 0.09140000    4.812 -6.86273  5.21778
    64      1     64 0.09140000    6.285 -6.17388  4.57807
    65      1     65 0.09140000    5.748 -5.75056  6.18697

Bonds 

     1      1      2      1
     2      2      3      2
     3      3      4      3
     4      4      5      4
     5      5      6      1
     6      6      7      1
     7      7      8      2
     8      8      9      3
     9      9     10      4
    10     10     11      5
    11     11     12     11
    12     12     13     11
    13     13     14     12
    14     14     15     13
    15     15     16     14
    16     16     17     15
    17     17     18     17
    18     18     19     18
    19     19     20     19
    20     20     21     13
    21     21     22     17
    22     22     23     21
    23     23     24     12
    24     24     25     24
    25     25     26     24
    26     26     27     26
    27     27     28     14
    28     28     29     28
    29     29     30      6
    30     30     31     30
    31     31     32     30
    32     32     33     32
    33     33     34     26
    34     34     35     34
    35     35     36     18
    36     36     37     34
    37     37     38     35
    38     38     39     38
    39     39     40     38
    40     40     41     38
    41     41     42     41
    42     42     43     41
    43     43     44     41
    44     44     45     35
    45     45     46     45
    46     46     47     45
    47     47     48     45
    48     48     49     48
    49     49     50     48
    50     50     51     48
    51     51     52     36
    52     52     53     52
    53     53     54     52
    54     54     55     36
    55     55     56     55
    56     56     57     55
    57     57     58     52
    58     58     59     58
    59     59     60     58
    60     60     61     58
    61     61     62     55
    62     62     63     62
    63     63     64     62
    64     64     65     62
    65     65      6      5
    66     66     16     15
    67     67     21     19
    68     68     34     28

Angles 

     1      1      1      2      3
     2      2      2      3      4
     3      3      3      4      5
     4      4      2      1      6
     5      5      2      1      7
     6      6      1      2      8
     7      7      2      3      9
     8      8      3      4     10
     9      9      4      5     11
    10     10      5     11     12
    11     11      5     11     13
    12     12     11     12     14
    13     13     11     13     15
    14     14     12     14     16
    15     15     13     15     17
    16     16     15     17     18
    17     17     17     18     19
    18     18     18     19     20
    19     19     11     13     21
    20     20     15     17     22
    21     21     13     21     23
    22     22     11     12     24
    23     23     12     24     25
    24     24     12     24     26
    25     25     24     26     27
    26     26     12     14     28
    27     27     14     28     29
    28     28      1      6     30
    29     29      6     30     31
    30     30      6     30     32
    31     31     30     32     33
    32     32     24     26     34
    33     33     26     34     35
    34     34     17     18     36
    35     35     26     34     37
    36     36     34     35     38
    37     37     35     38     39
    38     38     35     38     40
    39     39     35     38     41
    40     40     38     41     42
    41     41     38     41     43
    42     42     38     41     44
    43     43     34     35     45
    44     44     35     45     46
    45     45     35     45     47
    46     46     35     45     48
    47     47     45     48     49
    48     48     45     48     50
    49     49     45     48     51
    50     50     18     36     52
    51     51     36     52     53
    52     52     36     52     54
    53     53     18     36     55
    54     54     36     55     56
    55     55     36     55     57
    56     56     36     52     58
    57     57     52     58     59
    58     58     52     58     60
    59     59     52     58     61
    60     60     36     55     62
    61     61     55     62     63
    62     62     55     62     64
    63     63     55     62     65
    64     64     50     48     51
    65     65     20     19     21
    66     66     56     55     62
    67     67     57     55     62
    68     68      5      6     30
    69     69     25     24     26
    70     70     59     58     61
    71     71     63     62     64
    72     72     16     15     17
    73     73     18     17     22
    74     74     16     14     28
    75     75      1      6      5
    76     76     26     34     28
    77     77     63     62     65
    78     78     59     58     60
    79     79     19     18     36
    80     80     28     34     37
    81     81     14     12     24
    82     82      6      5     11
    83     83     53     52     54
    84     84     38     35     45
    85     85     40     38     41
    86     86     15     13     21
    87     87     64     62     65
    88     88     39     38     40
    89     89     29     28     34
    90     90     39     38     41
    91     91     49     48     50
    92     92     19     21     23
    93     93      4      3      9
    94     94     53     52     58
    95     95     31     30     32
    96     96     52     36     55
    97     97      3      2      8
    98     98     43     41     44
    99     99     28     34     35
   100    100     42     41     44
   101    101     47     45     48
   102    102     42     41     43
   103    103     35     34     37
   104    104      4      5      6
   105    105     56     55     57
   106    106     46     45     48
   107    107     49     48     51
   108    108     60     58     61
   109    109     18     19     21
   110    110     14     28     34