LAMMPS data file Created by LigParGen - (Written by Leela S. Dodda)

     127 atoms
     126 bonds
     243 angles
     344 dihedrals
      80 impropers
 
     127 atom types
     126 bond types
     243 angle types
     344 dihedral types
      80 improper types
 
  -32.051410    17.948590 xlo xhi
   -7.043750    42.956250 ylo yhi
   -1.026680    48.973320 zlo zhi

Masses

       1     12.011  
       2     12.011  
       3     12.011  
       4     12.011  
       5     12.011  
       6     12.011  
       7     12.011  
       8     12.011  
       9     12.011  
      10     12.011  
      11     12.011  
      12     12.011  
      13     12.011  
      14     12.011  
      15     12.011  
      16     12.011  
      17     12.011  
      18     12.011  
      19     15.999  
      20     30.974  
      21     15.999  
      22     15.999  
      23     15.999  
      24     12.011  
      25     12.011  
      26     14.007  
      27     12.011  
      28     12.011  
      29     12.011  
      30     14.007  
      31     12.011  
      32     15.999  
      33     12.011  
      34     12.011  
      35     12.011  
      36     12.011  
      37     12.011  
      38     12.011  
      39     12.011  
      40     12.011  
      41     12.011  
      42     12.011  
      43     12.011  
      44     12.011  
      45     12.011  
      46     12.011  
      47     12.011  
      48     15.999  
      49      1.008  
      50      1.008  
      51      1.008  
      52      1.008  
      53      1.008  
      54      1.008  
      55      1.008  
      56      1.008  
      57      1.008  
      58      1.008  
      59      1.008  
      60      1.008  
      61      1.008  
      62      1.008  
      63      1.008  
      64      1.008  
      65      1.008  
      66      1.008  
      67      1.008  
      68      1.008  
      69      1.008  
      70      1.008  
      71      1.008  
      72      1.008  
      73      1.008  
      74      1.008  
      75      1.008  
      76      1.008  
      77      1.008  
      78      1.008  
      79      1.008  
      80      1.008  
      81      1.008  
      82      1.008  
      83      1.008  
      84      1.008  
      85      1.008  
      86      1.008  
      87      1.008  
      88      1.008  
      89      1.008  
      90      1.008  
      91      1.008  
      92      1.008  
      93      1.008  
      94      1.008  
      95      1.008  
      96      1.008  
      97      1.008  
      98      1.008  
      99      1.008  
     100      1.008  
     101      1.008  
     102      1.008  
     103      1.008  
     104      1.008  
     105      1.008  
     106      1.008  
     107      1.008  
     108      1.008  
     109      1.008  
     110      1.008  
     111      1.008  
     112      1.008  
     113      1.008  
     114      1.008  
     115      1.008  
     116      1.008  
     117      1.008  
     118      1.008  
     119      1.008  
     120      1.008  
     121      1.008  
     122      1.008  
     123      1.008  
     124      1.008  
     125      1.008  
     126      1.008  
     127      1.008  

Pair Coeffs 

       1      0.066  3.5000000 
       2      0.066  3.5000000 
       3      0.066  3.5000000 
       4      0.066  3.5000000 
       5      0.066  3.5000000 
       6      0.066  3.5000000 
       7      0.066  3.5000000 
       8      0.066  3.5000000 
       9      0.066  3.5000000 
      10      0.066  3.5000000 
      11      0.066  3.5000000 
      12      0.066  3.5000000 
      13      0.066  3.5000000 
      14      0.066  3.5000000 
      15      0.066  3.5000000 
      16      0.066  3.5000000 
      17      0.066  3.5000000 
      18      0.066  3.5000000 
      19      0.140  2.9000000 
      20      0.200  3.7400000 
      21      0.210  2.9600000 
      22      0.210  2.9600000 
      23      0.140  2.9000000 
      24      0.066  3.5000000 
      25      0.066  3.5000000 
      26      0.170  3.2500000 
      27      0.066  3.5000000 
      28      0.066  3.5000000 
      29      0.066  3.5000000 
      30      0.170  3.2500000 
      31      0.070  3.5500000 
      32      0.210  2.9600000 
      33      0.066  3.5000000 
      34      0.066  3.5000000 
      35      0.066  3.5000000 
      36      0.066  3.5000000 
      37      0.066  3.5000000 
      38      0.066  3.5000000 
      39      0.066  3.5000000 
      40      0.076  3.5500000 
      41      0.076  3.5500000 
      42      0.066  3.5000000 
      43      0.066  3.5000000 
      44      0.066  3.5000000 
      45      0.066  3.5000000 
      46      0.066  3.5000000 
      47      0.066  3.5000000 
      48      0.170  3.1200000 
      49      0.030  2.5000000 
      50      0.030  2.5000000 
      51      0.030  2.5000000 
      52      0.030  2.5000000 
      53      0.030  2.5000000 
      54      0.030  2.5000000 
      55      0.030  2.5000000 
      56      0.030  2.5000000 
      57      0.030  2.5000000 
      58      0.030  2.5000000 
      59      0.030  2.5000000 
      60      0.030  2.5000000 
      61      0.030  2.5000000 
      62      0.030  2.5000000 
      63      0.030  2.5000000 
      64      0.030  2.5000000 
      65      0.030  2.5000000 
      66      0.030  2.5000000 
      67      0.030  2.5000000 
      68      0.030  2.5000000 
      69      0.030  2.5000000 
      70      0.030  2.5000000 
      71      0.030  2.5000000 
      72      0.030  2.5000000 
      73      0.030  2.5000000 
      74      0.030  2.5000000 
      75      0.030  2.5000000 
      76      0.030  2.5000000 
      77      0.030  2.5000000 
      78      0.030  2.5000000 
      79      0.030  2.5000000 
      80      0.030  2.5000000 
      81      0.030  2.5000000 
      82      0.030  2.5000000 
      83      0.030  2.5000000 
      84      0.030  2.5000000 
      85      0.030  2.5000000 
      86      0.030  2.5000000 
      87      0.030  2.5000000 
      88      0.030  2.5000000 
      89      0.030  2.5000000 
      90      0.030  2.5000000 
      91      0.030  2.5000000 
      92      0.030  2.5000000 
      93      0.030  2.5000000 
      94      0.030  2.5000000 
      95      0.030  2.5000000 
      96      0.030  2.5000000 
      97      0.000  0.0000000 
      98      0.030  2.5000000 
      99      0.030  2.5000000 
     100      0.030  2.5000000 
     101      0.030  2.5000000 
     102      0.030  2.5000000 
     103      0.030  2.5000000 
     104      0.030  2.5000000 
     105      0.030  2.5000000 
     106      0.030  2.5000000 
     107      0.030  2.5000000 
     108      0.030  2.5000000 
     109      0.030  2.5000000 
     110      0.030  2.5000000 
     111      0.030  2.5000000 
     112      0.030  2.5000000 
     113      0.030  2.5000000 
     114      0.030  2.5000000 
     115      0.030  2.5000000 
     116      0.030  2.5000000 
     117      0.030  2.5000000 
     118      0.030  2.5000000 
     119      0.030  2.5000000 
     120      0.030  2.5000000 
     121      0.030  2.5000000 
     122      0.030  2.5000000 
     123      0.030  2.5000000 
     124      0.030  2.5000000 
     125      0.030  2.5000000 
     126      0.030  2.5000000 
     127      0.000  0.0000000 

Bond Coeffs 

       1   268.0000     1.5290 
       2   268.0000     1.5290 
       3   268.0000     1.5290 
       4   268.0000     1.5290 
       5   268.0000     1.5290 
       6   268.0000     1.5290 
       7   268.0000     1.5290 
       8   268.0000     1.5290 
       9   268.0000     1.5290 
      10   268.0000     1.5290 
      11   268.0000     1.5290 
      12   268.0000     1.5290 
      13   268.0000     1.5290 
      14   268.0000     1.5290 
      15   268.0000     1.5290 
      16   268.0000     1.5290 
      17   268.0000     1.5290 
      18   320.0000     1.4100 
      19   230.0000     1.6100 
      20   525.0000     1.4800 
      21   525.0000     1.4800 
      22   230.0000     1.6100 
      23   320.0000     1.4100 
      24   268.0000     1.5290 
      25   367.0000     1.4710 
      26   367.0000     1.4710 
      27   367.0000     1.4710 
      28   367.0000     1.4710 
      29   337.0000     1.4490 
      30   490.0000     1.3350 
      31   570.0000     1.2290 
      32   317.0000     1.5220 
      33   268.0000     1.5290 
      34   268.0000     1.5290 
      35   268.0000     1.5290 
      36   268.0000     1.5290 
      37   268.0000     1.5290 
      38   268.0000     1.5290 
      39   317.0000     1.5100 
      40   549.0000     1.3400 
      41   317.0000     1.5100 
      42   268.0000     1.5290 
      43   268.0000     1.5290 
      44   268.0000     1.5290 
      45   268.0000     1.5290 
      46   268.0000     1.5290 
      47   320.0000     1.4100 
      48   340.0000     1.0900 
      49   340.0000     1.0900 
      50   340.0000     1.0900 
      51   340.0000     1.0900 
      52   340.0000     1.0900 
      53   340.0000     1.0900 
      54   340.0000     1.0900 
      55   340.0000     1.0900 
      56   340.0000     1.0900 
      57   340.0000     1.0900 
      58   340.0000     1.0900 
      59   340.0000     1.0900 
      60   340.0000     1.0900 
      61   340.0000     1.0900 
      62   340.0000     1.0900 
      63   340.0000     1.0900 
      64   340.0000     1.0900 
      65   340.0000     1.0900 
      66   340.0000     1.0900 
      67   340.0000     1.0900 
      68   340.0000     1.0900 
      69   340.0000     1.0900 
      70   340.0000     1.0900 
      71   340.0000     1.0900 
      72   340.0000     1.0900 
      73   340.0000     1.0900 
      74   340.0000     1.0900 
      75   340.0000     1.0900 
      76   340.0000     1.0900 
      77   340.0000     1.0900 
      78   340.0000     1.0900 
      79   340.0000     1.0900 
      80   340.0000     1.0900 
      81   340.0000     1.0900 
      82   340.0000     1.0900 
      83   340.0000     1.0900 
      84   340.0000     1.0900 
      85   340.0000     1.0900 
      86   340.0000     1.0900 
      87   340.0000     1.0900 
      88   340.0000     1.0900 
      89   340.0000     1.0900 
      90   340.0000     1.0900 
      91   340.0000     1.0900 
      92   340.0000     1.0900 
      93   340.0000     1.0900 
      94   340.0000     1.0900 
      95   340.0000     1.0900 
      96   434.0000     1.0100 
      97   340.0000     1.0900 
      98   340.0000     1.0900 
      99   340.0000     1.0900 
     100   340.0000     1.0900 
     101   340.0000     1.0900 
     102   340.0000     1.0900 
     103   340.0000     1.0900 
     104   340.0000     1.0900 
     105   340.0000     1.0900 
     106   340.0000     1.0900 
     107   340.0000     1.0900 
     108   340.0000     1.0900 
     109   340.0000     1.0900 
     110   340.0000     1.0900 
     111   340.0000     1.0800 
     112   340.0000     1.0800 
     113   340.0000     1.0900 
     114   340.0000     1.0900 
     115   340.0000     1.0900 
     116   340.0000     1.0900 
     117   340.0000     1.0900 
     118   340.0000     1.0900 
     119   340.0000     1.0900 
     120   340.0000     1.0900 
     121   340.0000     1.0900 
     122   340.0000     1.0900 
     123   340.0000     1.0900 
     124   340.0000     1.0900 
     125   340.0000     1.0900 
     126   553.0000     0.9450 

Angle Coeffs 

       1     58.350    112.700
       2     58.350    112.700
       3     58.350    112.700
       4     58.350    112.700
       5     58.350    112.700
       6     58.350    112.700
       7     58.350    112.700
       8     58.350    112.700
       9     58.350    112.700
      10     58.350    112.700
      11     58.350    112.700
      12     58.350    112.700
      13     58.350    112.700
      14     58.350    112.700
      15     58.350    112.700
      16     58.350    112.700
      17     50.000    109.500
      18    100.000    120.500
      19    100.000    108.230
      20    100.000    108.230
      21     45.000    102.600
      22    100.000    120.500
      23     50.000    109.500
      24     80.000    111.200
      25     50.000    113.000
      26     50.000    113.000
      27     50.000    113.000
      28     80.000    109.700
      29     50.000    121.900
      30     80.000    122.900
      31     70.000    116.600
      32     63.000    111.100
      33     58.350    112.700
      34     58.350    112.700
      35     58.350    112.700
      36     58.350    112.700
      37     58.350    112.700
      38     63.000    111.100
      39     70.000    124.000
      40     70.000    124.000
      41     63.000    111.100
      42     58.350    112.700
      43     58.350    112.700
      44     58.350    112.700
      45     58.350    112.700
      46     50.000    109.500
      47     37.500    110.700
      48     37.500    110.700
      49     37.500    110.700
      50     37.500    110.700
      51     37.500    110.700
      52     37.500    110.700
      53     37.500    110.700
      54     37.500    110.700
      55     37.500    110.700
      56     37.500    110.700
      57     37.500    110.700
      58     37.500    110.700
      59     37.500    110.700
      60     37.500    110.700
      61     37.500    110.700
      62     37.500    110.700
      63     37.500    110.700
      64     37.500    110.700
      65     37.500    110.700
      66     37.500    110.700
      67     37.500    110.700
      68     37.500    110.700
      69     37.500    110.700
      70     37.500    110.700
      71     37.500    110.700
      72     37.500    110.700
      73     37.500    110.700
      74     37.500    110.700
      75     37.500    110.700
      76     37.500    110.700
      77     37.500    110.700
      78     37.500    110.700
      79     37.500    110.700
      80     37.500    110.700
      81     37.500    110.700
      82     35.000    109.500
      83     35.000    109.500
      84     37.500    110.700
      85     37.500    110.700
      86     35.000    109.500
      87     35.000    109.500
      88     35.000    109.500
      89     35.000    109.500
      90     35.000    109.500
      91     35.000    109.500
      92     35.000    109.500
      93     35.000    109.500
      94     35.000    109.500
      95     38.000    118.400
      96     35.000    109.500
      97     35.000    109.500
      98     37.500    110.700
      99     37.500    110.700
     100     37.500    110.700
     101     37.500    110.700
     102     37.500    110.700
     103     37.500    110.700
     104     37.500    110.700
     105     37.500    110.700
     106     37.500    110.700
     107     37.500    110.700
     108     37.500    110.700
     109     37.500    110.700
     110     35.000    117.000
     111     35.000    120.000
     112     35.000    109.500
     113     35.000    109.500
     114     37.500    110.700
     115     37.500    110.700
     116     37.500    110.700
     117     37.500    110.700
     118     37.500    110.700
     119     37.500    110.700
     120     37.500    110.700
     121     37.500    110.700
     122     37.500    110.700
     123     37.500    110.700
     124     37.500    110.700
     125     55.000    108.500
     126     37.500    110.700
     127     33.000    107.800
     128     37.500    110.700
     129     37.500    110.700
     130     33.000    107.800
     131     37.500    110.700
     132     33.000    107.800
     133     33.000    107.800
     134     33.000    107.800
     135     37.500    110.700
     136     37.500    110.700
     137     37.500    110.700
     138     37.500    110.700
     139     33.000    107.800
     140     37.500    110.700
     141     33.000    107.800
     142     33.000    107.800
     143     37.500    110.700
     144     37.500    110.700
     145     37.500    110.700
     146     50.000    113.000
     147     37.500    110.700
     148     37.500    110.700
     149     37.500    110.700
     150     35.000    109.500
     151     37.500    110.700
     152     80.000    109.700
     153     33.000    107.800
     154     37.500    110.700
     155     37.500    110.700
     156     37.500    110.700
     157     37.500    110.700
     158     37.500    110.700
     159     37.500    110.700
     160     33.000    107.800
     161     63.570    108.400
     162     33.000    107.800
     163     35.000    117.000
     164     80.000    120.400
     165     37.500    110.700
     166     33.000    107.800
     167     37.500    110.700
     168     37.500    110.700
     169     37.500    110.700
     170     33.000    107.800
     171     33.000    107.800
     172     33.000    107.800
     173     37.500    110.700
     174    100.000    108.230
     175     35.000    109.500
     176     37.500    110.700
     177     37.500    110.700
     178     33.000    107.800
     179     33.000    107.800
     180     37.500    110.700
     181     33.000    107.800
     182     35.000    109.500
     183     33.000    107.800
     184     37.500    110.700
     185     37.500    110.700
     186     35.000    109.500
     187     35.000    119.800
     188     37.500    110.700
     189     33.000    107.800
     190     35.000    109.500
     191     37.500    110.700
     192     33.000    107.800
     193     37.500    110.700
     194     37.500    110.700
     195    100.000    108.230
     196     37.500    110.700
     197     50.000    109.500
     198     37.500    110.700
     199     33.000    107.800
     200     37.500    110.700
     201     37.500    110.700
     202     33.000    107.800
     203     37.500    110.700
     204     33.000    107.800
     205     37.500    110.700
     206     37.500    110.700
     207     33.000    107.800
     208     33.000    107.800
     209     37.500    110.700
     210     35.000    109.500
     211     37.500    110.700
     212     33.000    107.800
     213     33.000    107.800
     214     33.000    107.800
     215     33.000    107.800
     216     35.000    120.000
     217     33.000    107.800
     218     33.000    107.800
     219     33.000    107.800
     220     37.500    110.700
     221     50.000    113.000
     222     37.500    110.700
     223     37.500    110.700
     224     37.500    110.700
     225     33.000    107.800
     226     33.000    107.800
     227     33.000    107.800
     228     33.000    107.800
     229     35.000    109.500
     230     35.000    109.500
     231     37.500    110.700
     232     33.000    107.800
     233     33.000    107.800
     234     33.000    107.800
     235     37.500    110.700
     236     33.000    107.800
     237     33.000    107.800
     238     37.500    110.700
     239     37.500    110.700
     240     33.000    107.800
     241     33.000    107.800
     242     37.500    110.700
     243     50.000    113.000

Dihedral Coeffs  

       1      1.300     -0.200      0.200      0.000 
       2      1.300     -0.200      0.200      0.000 
       3      1.300     -0.200      0.200      0.000 
       4      1.300     -0.200      0.200      0.000 
       5      1.300     -0.200      0.200      0.000 
       6      1.300     -0.200      0.200      0.000 
       7      1.300     -0.200      0.200      0.000 
       8      1.300     -0.200      0.200      0.000 
       9      1.300     -0.200      0.200      0.000 
      10      1.300     -0.200      0.200      0.000 
      11      1.300     -0.200      0.200      0.000 
      12      1.300     -0.200      0.200      0.000 
      13      1.300     -0.200      0.200      0.000 
      14      1.300     -0.200      0.200      0.000 
      15      1.300     -0.200      0.200      0.000 
      16      1.711     -0.500      0.663      0.000 
      17     -1.420     -0.620      0.100      0.000 
      18      0.000      0.000      0.000      0.000 
      19      0.000      0.000      0.000      0.000 
      20     -1.420     -0.620      0.100      0.000 
      21      8.000      0.000      0.000      0.000 
      22      1.438     -0.124      0.264      0.000 
      23      0.000      0.462      0.000      0.000 
      24      0.000      6.089      0.000      0.000 
      25      1.173      0.189     -1.200      0.000 
      26     -2.060     -0.313      0.315      0.000 
      27      1.300     -0.200      0.200      0.000 
      28      1.300     -0.200      0.200      0.000 
      29      1.300     -0.200      0.200      0.000 
      30      1.300     -0.200      0.200      0.000 
      31      1.300     -0.200      0.200      0.000 
      32      0.346      0.405     -0.904      0.000 
      33      0.000     14.000      0.000      0.000 
      34      0.346      0.405     -0.904      0.000 
      35      1.300     -0.200      0.200      0.000 
      36      1.300     -0.200      0.200      0.000 
      37      1.300     -0.200      0.200      0.000 
      38      1.300     -0.200      0.200      0.000 
      39      0.000      0.000      0.300      0.000 
      40      0.000      0.000      0.302      0.000 
      41      0.000      0.000      0.302      0.000 
      42      0.000      0.000      0.302      0.000 
      43      0.000      0.000      0.300      0.000 
      44     -0.356     -0.174      0.492      0.000 
      45      0.000      0.000      0.300      0.000 
      46      0.000      0.462      0.000      0.000 
      47      0.000      0.000      0.300      0.000 
      48      0.000      0.000      0.300      0.000 
      49      0.000      0.000      0.300      0.000 
      50      0.000      0.000      0.302      0.000 
      51      0.000      0.000      0.300      0.000 
      52      0.000      0.000      0.300      0.000 
      53      1.438     -0.124      0.264      0.000 
      54      0.000      0.000      0.300      0.000 
      55      0.000      0.000      0.300      0.000 
      56      0.000      0.000      0.300      0.000 
      57      0.000      0.000      0.300      0.000 
      58      0.000      0.000      0.300      0.000 
      59      0.000      0.000      0.366      0.000 
      60      0.000      0.000      0.300      0.000 
      61      0.000      0.000      0.468      0.000 
      62      0.000      0.000      0.300      0.000 
      63      0.000      0.000      0.302      0.000 
      64      0.000      0.000      0.300      0.000 
      65      0.000      0.000      0.300      0.000 
      66      0.000      0.000      0.300      0.000 
      67      0.000      0.000      0.468      0.000 
      68      0.000      0.000      0.300      0.000 
      69      0.000      0.000      0.300      0.000 
      70      0.000      0.000      0.300      0.000 
      71      0.000      0.000      0.300      0.000 
      72      0.000      0.000      0.384      0.000 
      73      0.000      0.000      0.000      0.000 
      74      0.000      0.000      0.300      0.000 
      75      0.000      0.000      0.300      0.000 
      76      0.000      0.000      0.300      0.000 
      77      0.000      0.000      0.300      0.000 
      78      0.000      0.000      0.302      0.000 
      79      0.000      0.000      0.302      0.000 
      80      0.000      0.000      0.300      0.000 
      81      0.000      0.000      0.300      0.000 
      82      0.000      0.000      0.300      0.000 
      83      0.000      0.000      0.300      0.000 
      84      0.000      0.000      0.302      0.000 
      85      0.000      0.000      0.302      0.000 
      86      0.000      0.000      0.300      0.000 
      87      0.000      0.000      0.300      0.000 
      88      0.000      0.000      0.464      0.000 
      89      0.000      0.000      0.300      0.000 
      90      0.000      0.000      0.302      0.000 
      91      0.000      0.000      0.300      0.000 
      92      0.000      0.000      0.300      0.000 
      93      0.000      0.000      0.300      0.000 
      94      0.000      0.000      0.300      0.000 
      95      0.000      0.000      0.300      0.000 
      96      0.000      0.000      0.000      0.000 
      97      0.000      0.000      0.366      0.000 
      98      0.000      0.000      0.300      0.000 
      99      0.000     -8.000      0.000      0.000 
     100      0.000      0.000      0.300      0.000 
     101      0.000      0.000      0.300      0.000 
     102      0.000      0.000      0.300      0.000 
     103      0.000     -8.000      0.000      0.000 
     104      0.000      0.000      0.300      0.000 
     105      0.000      0.000      0.300      0.000 
     106      0.000      0.000      0.300      0.000 
     107      0.000      0.000      0.300      0.000 
     108      0.000      0.000      0.300      0.000 
     109      0.000      0.000      0.300      0.000 
     110      0.000      4.900      0.000      0.000 
     111      0.000      0.000      0.000      0.000 
     112      0.000      0.000      0.300      0.000 
     113      0.000      0.000      0.300      0.000 
     114      0.000      0.000      0.300      0.000 
     115      0.000      0.000      0.300      0.000 
     116      0.000      0.000      0.300      0.000 
     117      0.000      0.000      0.300      0.000 
     118      0.000      0.000      0.300      0.000 
     119      0.000      0.000      0.300      0.000 
     120      0.000      0.000      0.300      0.000 
     121      0.000      0.000      0.300      0.000 
     122      0.000      0.000      0.300      0.000 
     123      0.000      0.000      0.300      0.000 
     124      0.000      0.000      0.318      0.000 
     125      0.000      0.000      0.300      0.000 
     126      0.000      0.000      0.300      0.000 
     127      0.000      0.000      0.300      0.000 
     128      0.000      0.000      0.300      0.000 
     129      0.000      4.900      0.000      0.000 
     130      0.000      0.000      0.302      0.000 
     131      0.000      0.000      0.302      0.000 
     132      0.000      0.000      0.300      0.000 
     133      0.000      0.000     -0.100      0.000 
     134     -1.552      0.000      0.000      0.000 
     135      0.000      0.000      0.300      0.000 
     136      0.000      0.000      0.300      0.000 
     137      0.000      0.000      0.300      0.000 
     138      0.000      0.000      0.000      0.000 
     139      0.000      0.000      0.300      0.000 
     140      0.000      0.000      0.300      0.000 
     141      0.000      0.000      0.300      0.000 
     142      0.000      0.000      0.000      0.000 
     143      0.000      0.000      0.300      0.000 
     144      0.000      0.000      0.300      0.000 
     145      0.000      0.000      0.300      0.000 
     146      0.000      0.000      0.300      0.000 
     147      0.000      0.000      0.300      0.000 
     148     -0.356     -0.174      0.492      0.000 
     149      0.000      0.000      0.318      0.000 
     150      0.000      0.000      0.300      0.000 
     151      0.000      0.000      0.300      0.000 
     152      0.000      0.000      0.300      0.000 
     153      0.000      0.000      0.352      0.000 
     154      0.000      0.000      0.300      0.000 
     155      0.000      0.000      0.000      0.000 
     156      0.000      0.000      0.468      0.000 
     157      0.000      0.000      0.300      0.000 
     158      0.000      0.000      0.302      0.000 
     159      0.000      0.000      0.302      0.000 
     160      0.000      0.000      0.300      0.000 
     161      0.000      0.000      0.300      0.000 
     162      0.000      0.000      0.302      0.000 
     163      0.000      0.000      0.300      0.000 
     164      0.000      0.000      0.302      0.000 
     165      0.000      0.000      0.464      0.000 
     166      0.000      0.000      0.000      0.000 
     167      0.000      0.000      0.300      0.000 
     168      0.000      0.000     -0.372      0.000 
     169      0.000      0.000      0.300      0.000 
     170      0.000      0.000      0.300      0.000 
     171      0.000      0.000      0.300      0.000 
     172      0.000      0.000      0.300      0.000 
     173      0.000      0.000      0.300      0.000 
     174      0.000      0.000      0.300      0.000 
     175      0.000      0.000      0.300      0.000 
     176      0.000      0.000      0.302      0.000 
     177      0.000      0.000      0.300      0.000 
     178      0.000      0.000      0.300      0.000 
     179      0.000      0.000      0.300      0.000 
     180      0.000      0.000      0.300      0.000 
     181      0.000      0.000     -0.100      0.000 
     182      0.000      0.000     -0.372      0.000 
     183      0.000      0.000      0.300      0.000 
     184      0.000      0.000      0.300      0.000 
     185      0.000      0.000      0.300      0.000 
     186      0.000      0.000      0.300      0.000 
     187      0.000      0.000      0.366      0.000 
     188      0.000      0.000      0.300      0.000 
     189      0.000      0.000      0.000      0.000 
     190      0.000      0.000      0.300      0.000 
     191      0.000      0.000      0.300      0.000 
     192      0.000      0.000      0.300      0.000 
     193      0.000      0.000      0.300      0.000 
     194      0.000      0.000      0.300      0.000 
     195      0.000      0.000      0.302      0.000 
     196      0.000      0.000      0.300      0.000 
     197      0.000      0.000      0.300      0.000 
     198      0.000      0.000      0.300      0.000 
     199      0.000      0.000      0.300      0.000 
     200      0.000      0.000      0.300      0.000 
     201      0.000      0.000      0.302      0.000 
     202      0.000      0.000      0.300      0.000 
     203      0.000      0.000      0.300      0.000 
     204      0.000      0.000      0.300      0.000 
     205      0.000     14.000      0.000      0.000 
     206      0.000      0.000      0.468      0.000 