LAMMPS data file Created by LigParGen - (Written by Leela S. Dodda)

      50 atoms
      49 bonds
      84 angles
     102 dihedrals
      27 impropers
 
      50 atom types
      49 bond types
      84 angle types
     102 dihedral types
      27 improper types
 
   -5.930850    44.069150 xlo xhi
   -5.667270    44.332730 ylo yhi
   -2.959970    47.040030 zlo zhi

Masses

       1     12.011  
       2     12.011  
       3     12.011  
       4     12.011  
       5     15.999  
       6     12.011  
       7     15.999  
       8     12.011  
       9     12.011  
      10     12.011  
      11     12.011  
      12     15.999  
      13     12.011  
      14     15.999  
      15     12.011  
      16     12.011  
      17     12.011  
      18     12.011  
      19     15.999  
      20     12.011  
      21     15.999  
      22     12.011  
      23     12.011  
      24     12.011  
      25      1.008  
      26      1.008  
      27      1.008  
      28      1.008  
      29      1.008  
      30      1.008  
      31      1.008  
      32      1.008  
      33      1.008  
      34      1.008  
      35      1.008  
      36      1.008  
      37      1.008  
      38      1.008  
      39      1.008  
      40      1.008  
      41      1.008  
      42      1.008  
      43      1.008  
      44      1.008  
      45      1.008  
      46      1.008  
      47      1.008  
      48      1.008  
      49      1.008  
      50      1.008  

Pair Coeffs 

       1      0.066  3.5000000 
       2      0.066  3.5000000 
       3      0.066  3.5000000 
       4      0.066  3.5000000 
       5      0.140  2.9000000 
       6      0.070  3.5500000 
       7      0.210  2.9600000 
       8      0.076  3.5500000 
       9      0.066  3.5000000 
      10      0.076  3.5500000 
      11      0.066  3.5000000 
      12      0.140  2.9000000 
      13      0.070  3.5500000 
      14      0.210  2.9600000 
      15      0.076  3.5500000 
      16      0.066  3.5000000 
      17      0.076  3.5500000 
      18      0.066  3.5000000 
      19      0.140  2.9000000 
      20      0.070  3.5500000 
      21      0.210  2.9600000 
      22      0.076  3.5500000 
      23      0.066  3.5000000 
      24      0.076  3.5500000 
      25      0.030  2.5000000 
      26      0.030  2.5000000 
      27      0.030  2.5000000 
      28      0.030  2.5000000 
      29      0.030  2.5000000 
      30      0.030  2.5000000 
      31      0.030  2.5000000 
      32      0.030  2.5000000 
      33      0.030  2.5000000 
      34      0.030  2.5000000 
      35      0.030  2.5000000 
      36      0.030  2.5000000 
      37      0.030  2.5000000 
      38      0.030  2.5000000 
      39      0.030  2.5000000 
      40      0.030  2.5000000 
      41      0.030  2.5000000 
      42      0.030  2.5000000 
      43      0.030  2.5000000 
      44      0.030  2.5000000 
      45      0.030  2.5000000 
      46      0.030  2.5000000 
      47      0.030  2.5000000 
      48      0.030  2.5000000 
      49      0.030  2.5000000 
      50      0.030  2.5000000 

Bond Coeffs 

       1   268.0000     1.5290 
       2   268.0000     1.5290 
       3   268.0000     1.5290 
       4   320.0000     1.4100 
       5   214.0000     1.3270 
       6   570.0000     1.2290 
       7   410.0000     1.4440 
       8   317.0000     1.5100 
       9   549.0000     1.3400 
      10   268.0000     1.5290 
      11   320.0000     1.4100 
      12   214.0000     1.3270 
      13   570.0000     1.2290 
      14   410.0000     1.4440 
      15   317.0000     1.5100 
      16   549.0000     1.3400 
      17   268.0000     1.5290 
      18   320.0000     1.4100 
      19   214.0000     1.3270 
      20   570.0000     1.2290 
      21   410.0000     1.4440 
      22   317.0000     1.5100 
      23   549.0000     1.3400 
      24   340.0000     1.0900 
      25   340.0000     1.0900 
      26   340.0000     1.0900 
      27   340.0000     1.0900 
      28   340.0000     1.0900 
      29   340.0000     1.0900 
      30   340.0000     1.0900 
      31   340.0000     1.0900 
      32   340.0000     1.0900 
      33   340.0000     1.0900 
      34   340.0000     1.0800 
      35   340.0000     1.0800 
      36   340.0000     1.0900 
      37   340.0000     1.0900 
      38   340.0000     1.0900 
      39   340.0000     1.0900 
      40   340.0000     1.0900 
      41   340.0000     1.0800 
      42   340.0000     1.0800 
      43   340.0000     1.0900 
      44   340.0000     1.0900 
      45   340.0000     1.0900 
      46   340.0000     1.0900 
      47   340.0000     1.0900 
      48   340.0000     1.0800 
      49   340.0000     1.0800 

Angle Coeffs 

       1     58.350    112.700
       2     58.350    112.700
       3     50.000    109.500
       4     83.000    116.900
       5     83.000    123.400
       6     81.000    111.400
       7     70.000    119.700
       8     85.000    120.700
       9     58.350    112.700
      10     50.000    109.500
      11     83.000    116.900
      12     83.000    123.400
      13     81.000    111.400
      14     70.000    119.700
      15     85.000    120.700
      16     58.350    112.700
      17     50.000    109.500
      18     83.000    116.900
      19     83.000    123.400
      20     81.000    111.400
      21     70.000    119.700
      22     85.000    120.700
      23     37.500    110.700
      24     37.500    110.700
      25     37.500    110.700
      26     37.500    110.700
      27     37.500    110.700
      28     37.500    110.700
      29     37.500    110.700
      30     35.000    109.500
      31     35.000    109.500
      32     35.000    109.500
      33     35.000    120.000
      34     35.000    120.000
      35     37.500    110.700
      36     37.500    110.700
      37     35.000    109.500
      38     35.000    109.500
      39     35.000    109.500
      40     35.000    120.000
      41     35.000    120.000
      42     37.500    110.700
      43     37.500    110.700
      44     35.000    109.500
      45     35.000    109.500
      46     35.000    109.500
      47     35.000    120.000
      48     35.000    120.000
      49     33.000    107.800
      50     33.000    107.800
      51     33.000    107.800
      52     35.000    109.500
      53     33.000    107.800
      54     80.000    125.300
      55     33.000    107.800
      56     35.000    109.500
      57     35.000    117.000
      58     33.000    107.800
      59     33.000    107.800
      60     58.350    112.700
      61     35.000    109.500
      62     33.000    107.800
      63     80.000    125.300
      64     35.000    109.500
      65     58.350    112.700
      66     33.000    107.800
      67     33.000    107.800
      68     33.000    107.800
      69     80.000    125.300
      70     35.000    109.500
      71     70.000    124.000
      72     33.000    107.800
      73     35.000    117.000
      74     33.000    107.800
      75     33.000    107.800
      76     70.000    124.000
      77     33.000    107.800
      78     58.350    112.700
      79     35.000    109.500
      80     33.000    107.800
      81     37.500    110.700
      82     35.000    117.000
      83     70.000    124.000
      84     37.500    110.700

Dihedral Coeffs  

       1      1.300     -0.200      0.200      0.000 
       2      1.711     -0.500      0.663      0.000 
       3     -1.220     -0.126      0.422      0.000 
       4      0.000      5.124      0.000      0.000 
       5      0.900      0.230     -0.505      0.000 
       6      1.711     -0.500      0.663      0.000 
       7     -1.220     -0.126      0.422      0.000 
       8      0.000      5.124      0.000      0.000 
       9      0.900      0.230     -0.505      0.000 
      10      1.711     -0.500      0.663      0.000 
      11     -1.220     -0.126      0.422      0.000 
      12      0.000      5.124      0.000      0.000 
      13      0.900      0.230     -0.505      0.000 
      14      0.000      0.000      0.300      0.000 
      15      0.000      0.000     -0.372      0.000 
      16      0.000     14.000      0.000      0.000 
      17      0.000      0.000     -0.372      0.000 
      18      0.000     14.000      0.000      0.000 
      19      0.000      0.000     -0.372      0.000 
      20      0.000     14.000      0.000      0.000 
      21      0.000      0.000      0.300      0.000 
      22      1.711     -0.500      0.663      0.000 
      23      0.000      0.000      0.300      0.000 
      24      0.000      0.000     -0.372      0.000 
      25      0.000      0.000      0.198      0.000 
      26      0.000      0.000      0.300      0.000 
      27      1.300     -0.200      0.200      0.000 
      28      0.000      0.000      0.300      0.000 
      29      4.669      5.124      0.000      0.000 
      30      0.000      0.000      0.300      0.000 
      31      0.000      0.000      0.300      0.000 
      32      0.000      0.000     -0.372      0.000 
      33      0.000      0.000      0.300      0.000 
      34      0.000      0.000      0.300      0.000 
      35      0.000      0.000      0.300      0.000 
      36      0.000      0.000      0.300      0.000 
      37      0.000      0.000     -0.372      0.000 
      38      0.000      0.000      0.300      0.000 
      39      0.000      0.000      0.300      0.000 
      40      0.000      0.000      0.300      0.000 
      41      0.900      0.230     -0.505      0.000 
      42      0.000      0.000      0.300      0.000 
      43      0.000      0.000     -0.372      0.000 
      44      0.900      0.230     -0.505      0.000 
      45      0.000      0.000     -0.372      0.000 
      46      0.000      0.000      0.300      0.000 
      47      1.711     -0.500      0.663      0.000 
      48      0.900      0.230     -0.505      0.000 
      49      0.000      0.000      0.198      0.000 
      50      0.000     14.000      0.000      0.000 
      51      0.000      0.000     -0.372      0.000 
      52      0.000      0.000     -0.372      0.000 
      53      0.000      0.000      0.300      0.000 
      54      0.000      0.000      0.300      0.000 
      55      0.000      0.000      0.300      0.000 
      56      0.000      0.000      0.300      0.000 
      57      0.000     14.000      0.000      0.000 
      58      1.711     -0.500      0.663      0.000 
      59      0.000      0.000      0.198      0.000 
      60      0.000      0.000     -0.372      0.000 
      61      0.000      0.000      0.300      0.000 
      62      0.000      0.000      0.198      0.000 
      63      1.300     -0.200      0.200      0.000 
      64      0.000      0.000      0.300      0.000 
      65      2.500      6.000      0.000      0.000 
      66      0.000      0.000     -0.372      0.000 
      67      1.711     -0.500      0.663      0.000 
      68      0.000      0.000      0.300      0.000 
      69      0.000      0.000     -0.372      0.000 
      70      0.000      0.000      0.300      0.000 
      71      0.000     14.000      0.000      0.000 
      72      0.000     14.000      0.000      0.000 
      73      0.000     14.000      0.000      0.000 
      74      0.000      0.000      0.300      0.000 
      75      1.711     -0.500      0.663      0.000 
      76      0.000      0.000      0.198      0.000 
      77      0.000      0.000      0.300      0.000 
      78      0.000      0.000      0.300      0.000 
      79      0.000      0.000     -0.372      0.000 
      80      0.000      0.000     -0.372      0.000 
      81      0.000     14.000      0.000      0.000 
      82      0.000     14.000      0.000      0.000 
      83      0.000      0.000      0.300      0.000 
      84      0.000     14.000      0.000      0.000 
      85      2.500      6.000      0.000      0.000 
      86      4.669      5.124      0.000      0.000 
      87      0.000      0.000      0.300      0.000 
      88      3.200     -3.000      0.000      0.000 
      89      0.000      0.000      0.300      0.000 
      90      2.500      6.000      0.000      0.000 
      91      4.669      5.124      0.000      0.000 
      92      0.000      0.000      0.300      0.000 
      93      1.711     -0.500      0.663      0.000 
      94      0.000     14.000      0.000      0.000 
      95      0.000      0.000     -0.372      0.000 
      96      3.200     -3.000      0.000      0.000 
      97      0.000      0.000      0.198      0.000 
      98      3.200     -3.000      0.000      0.000 
      99      0.000      0.000      0.300      0.000 
     100      0.000      0.000      0.300      0.000 
     101      0.000      0.000     -0.372      0.000 
     102      0.000      0.000     -0.372      0.000 

Improper Coeffs 

       1     10.500      -1       2 
       2      2.500      -1       2 
       3      0.000      -1       2 
       4     10.500      -1       2 
       5      2.500      -1       2 
       6      0.000      -1       2 
       7     10.500      -1       2 
       8      2.500      -1       2 
       9      0.000      -1       2 
      10      0.000      -1       2 
      11      0.000      -1       2 
      12      0.000      -1       2 
      13      0.000      -1       2 
      14      0.000      -1       2 
      15      0.000      -1       2 
      16      0.000      -1       2 
      17      2.500      -1       2 
      18      0.000      -1       2 
      19      0.000      -1       2 
      20      0.000      -1       2 
      21      0.000      -1       2 
      22      2.500      -1       2 
      23      0.000      -1       2 
      24      0.000      -1       2 
      25      0.000      -1       2 
      26      0.000      -1       2 
      27      2.500      -1       2 

Atoms 

     1      1      1 -0.24680000    1.283045      0.482552      0.229594
     2      1      2 -0.17470000   -0.188687      0.858142      0.018601
     3      1      3 -0.09850000   -1.048041      0.994055      1.299336
     4      1      4 0.00050000    -0.470445      2.137422      2.152236
     5      1      5 -0.36250000   -1.232369      2.309765      3.368863
     6      1      6 0.48120000    -0.634013      1.998443      4.547981
     7      1      7 -0.45210000    0.506084      1.610208      4.635890
     8      1      8 -0.16420000   -1.578002      2.196887      5.691757
     9      1      9 -0.19550000   -2.979510      2.666578      5.409806
    10      1     10 -0.16240000   -1.112861      1.935391      6.916099
    11      1     11 0.01230000    -2.495557      1.405186      0.948271
    12      1     12 -0.33510000   -3.358345      0.291448      0.646684
    13      1     13 0.48290000    -3.550444     -0.048101     -0.645467
    14      1     14 -0.45110000   -3.007546      0.506360     -1.573569
    15      1     15 -0.14860000   -4.526513     -1.177689     -0.756800
    16      1     16 -0.19270000   -5.096067     -1.768550      0.503543
    17      1     17 -0.18510000   -4.840621     -1.596885     -1.984795
    18      1     18 0.01270000    -1.021141     -0.295999      2.140881
    19      1     19 -0.33570000   -1.197815     -1.445990      1.285787
    20      1     20 0.48190000    -0.369198     -2.501076      1.474336
    21      1     21 -0.45840000    0.467335     -2.549620      2.345585
    22      1     22 -0.15890000   -0.620857     -3.572666      0.458743
    23      1     23 -0.19590000   -1.688281     -3.364182     -0.579307
    24      1     24 -0.17260000    0.136917     -4.670019      0.534027
    25      1     25 0.09140000     1.764523      0.328794     -0.739576
    26      1     26 0.09140000     1.402267     -0.439151      0.802684
    27      1     27 0.09140000     1.845077      1.264744      0.746294
    28      1     28 0.10500000    -0.663876      0.124009     -0.631074
    29      1     29 0.10500000    -0.248985      1.808580     -0.523188
    30      1     30 0.13080000    -0.547180      3.085626      1.614817
    31      1     31 0.13080000     0.568117      1.951689      2.414193
    32      1     32 0.10090000    -2.977593      3.630865      4.894678
    33      1     33 0.10090000    -3.541700      2.769064      6.339591
    34      1     34 0.10090000    -3.508789      1.963542      4.760365
    35      1     35 0.14990000    -0.093974      1.596617      7.058451
    36      1     36 0.14990000    -1.739915      2.054544      7.792405
    37      1     37 0.12140000    -2.500823      2.103261      0.109637
    38      1     38 0.12140000    -2.963347      1.868192      1.815833
    39      1     39 0.09970000    -4.300980     -2.109198      1.171656
    40      1     40 0.09970000    -5.749203     -2.611588      0.270567
    41      1     41 0.09970000    -5.673230     -1.024612      1.059893
    42      1     42 0.14430000    -4.398917     -1.129732     -2.856569
    43      1     43 0.14430000    -5.541374     -2.409651     -2.139235
    44      1     44 0.12150000    -1.835747     -0.305803      2.867155
    45      1     45 0.12150000    -0.078759     -0.398575      2.675930
    46      1     46 0.10070000    -1.520474     -2.446610     -1.147950
    47      1     47 0.10070000    -2.673470     -3.270120     -0.118585
    48      1     48 0.10070000    -1.712962     -4.204904     -1.274950
    49      1     49 0.14770000     0.890879     -4.768489      1.305346
    50      1     50 0.14770000     0.017370     -5.483753     -0.172450

Bonds 

     1      1      2      1
     2      2      3      2
     3      3      4      3
     4      4      5      4
     5      5      6      5
     6      6      7      6
     7      7      8      6
     8      8      9      8
     9      9     10      8
    10     10     11      3
    11     11     12     11
    12     12     13     12
    13     13     14     13
    14     14     15     13
    15     15     16     15
    16     16     17     15
    17     17     18      3
    18     18     19     18
    19     19     20     19
    20     20     21     20
    21     21     22     20
    22     22     23     22
    23     23     24     22
    24     24     25      1
    25     25     26      1
    26     26     27      1
    27     27     28      2
    28     28     29      2
    29     29     30      4
    30     30     31      4
    31     31     32      9
    32     32     33      9
    33     33     34      9
    34     34     35     10
    35     35     36     10
    36     36     37     11
    37     37     38     11
    38     38     39     16
    39     39     40     16
    40     40     41     16
    41     41     42     17
    42     42     43     17
    43     43     44     18
    44     44     45     18
    45     45     46     23
    46     46     47     23
    47     47     48     23
    48     48     49     24
    49     49     50     24

Angles 

     1      1      1      2      3
     2      2      2      3      4
     3      3      3      4      5
     4      4      4      5      6
     5      5      5      6      7
     6      6      5      6      8
     7      7      6      8      9
     8      8      6      8     10
     9      9      2      3     11
    10     10      3     11     12
    11     11     11     12     13
    12     12     12     13     14
    13     13     12     13     15
    14     14     13     15     16
    15     15     13     15     17
    16     16      2      3     18
    17     17      3     18     19
    18     18     18     19     20
    19     19     19     20     21
    20     20     19     20     22
    21     21     20     22     23
    22     22     20     22     24
    23     23      2      1     25
    24     24      2      1     26
    25     25      2      1     27
    26     26      1      2     28
    27     27      1      2     29
    28     28      3      4     30
    29     29      3      4     31
    30     30      8      9     32
    31     31      8      9     33
    32     32      8      9     34
    33     33      8     10     35
    34     34      8     10     36
    35     35      3     11     37
    36     36      3     11     38
    37     37     15     16     39
    38     38     15     16     40
    39     39     15     16     41
    40     40     15     17     42
    41     41     15     17     43
    42     42      3     18     44
    43     43      3     18     45
    44     44     22     23     46
    45     45     22     23     47
    46     46     22     23     48
    47     47     22     24     49
    48     48     22     24     50
    49     49     46     23     47
    50     50     39     16     41
    51     51     25      1     27
    52     52     12     11     37
    53     53     39     16     40
    54     54     21     20     22
    55     55     28      2     29
    56     56     19     18     45
    57     57     49     24     50
    58     58     26      1     27
    59     59     40     16     41
    60     60      4      3     11
    61     61      5      4     30
    62     62     30      4     31
    63     63     14     13     15
    64     64     19     18     44
    65     65      4      3     18
    66     66     47     23     48
    67     67     44     18     45
    68     68     32      9     34
    69     69      7      6      8
    70     70      5      4     31
    71     71     16     15     17
    72     72     46     23     48
    73     73     35     10     36
    74     74     37     11     38
    75     75     33      9     34
    76     76     23     22     24
    77     77     25      1     26
    78     78     11      3     18
    79     79     12     11     38
    80     80     32      9     33
    81     81      3      2     28
    82     82     42     17     43
    83     83      9      8     10
    84     84      3      2     29

Dihedrals

     1      1      4      3      2      1 
     2      2      5      4      3      2 
     3      3      6      5      4      3 
     4      4      7      6      5      4 
     5      5      9      8      6      5 
     6      6     12     11      3      2 
     7      7     13     12     11      3 
     8      8     14     13     12     11 
     9      9     16     15     13     12 
    10     10     19     18      3      2 
    11     11     20     19     18      3 
    12     12     21     20     19     18 
    13     13     23     22     20     19 
    14     14     25      1      2      3 
    15     15     32      9      8      6 
    16     16     35     10      8      6 
    17     17     39     16     15     13 
    18     18     42     17     15     13 
    19     19     46     23     22     20 
    20     20     49     24     22     20 
    21     21     30      4      3      2 
    22     22     19     18      3     11 
    23     23     29      2      1     26 
    24     24     48     23     22     24 
    25     25     44     18     19     20 
    26     26     31      4      3     18 
    27     27     18      3      2      1 
    28     28     28      2      3     11 
    29     29      8      6      5      4 
    30     30     45     18      3      4 
    31     31     45     18      3      2 
    32     32     47     23     22     24 
    33     33     37     11      3      2 
    34     34     38     11      3      4 
    35     35     28      2      3     18 
    36     36     37     11      3      4 
    37     37     34      9      8      6 
    38     38     26      1      2      3 
    39     39     31      4      3     11 
    40     40     28      2      3      4 
    41     41      9      8      6      7 
    42     42     44     18      3     11 
    43     43     46     23     22     24 
    44     44     23     22     20     21 
    45     45     40     16     15     13 
    46     46     27      1      2      3 
    47     47     11      3      4      5 
    48     48     16     15     13     14 
    49     49     37     11     12     13 
    50     50     36     10      8      9 
    51     51     41     16     15     17 
    52     52     32      9      8     10 
    53     53     45     18      3     11 
    54     54     28      2      1     26 
    55     55     28      2      1     25 
    56     56     29      2      1     25 
    57     57     42     17     15     16 
    58     58     12     11      3      4 
    59     59     38     11     12     13 
    60     60     48     23     22     20 
    61     61     38     11      3     18 
    62     62     45     18     19     20 
    63     63     11      3      2      1 
    64     64     31      4      3      2 
    65     65     10      8      6      7 
    66     66     47     23     22     20 
    67     67     18      3      4      5 
    68     68     28      2      1     27 
    69     69     40     16     15     17 
    70     70     29      2      1     27 
    71     71     49     24     22     23 
    72     72     43     17     15     16 
    73     73     50     24     22     20 
    74     74     29      2      3     11 
    75     75     18      3     11     12 
    76     76     31      4      5      6 
    77     77     30      4      3     18 
    78     78     38     11      3      2 
    79     79     34      9      8     10 
    80     80     33      9      8      6 
    81     81     36     10      8      6 
    82     82     43     17     15     13 
    83     83     44     18      3      4 
    84     84     35     10      8      9 
    85     85     17     15     13     14 
    86     86     22     20     19     18 
    87     87     29      2      3      4 
    88     88     17     15     13     12 
    89     89     29      2      3     18 
    90     90     24     22     20     21 
    91     91     15     13     12     11 
    92     92     44     18      3      2 
    93     93     19     18      3      4 
    94     94     50     24     22     23 
    95     95     39     16     15     17 
    96     96     24     22     20     19 
    97     97     30      4      5      6 
    98     98     10      8      6      5 
    99     99     30      4      3     11 
   100    100     37     11      3     18 
   101    101     41     16     15     13 
   102    102     33      9      8     10 

Impropers

     1      1      6      5      7      8 
     2      2      8      9     10      6 
     3      3      3      2     11      4 
     4      4     13     12     14     15 
     5      5     15     17     13     16 
     6      6      3     18      4      2 
     7      7     20     19     21     22 
     8      8     22     20     23     24 
     9      9      1     26     25      2 
    10     10      1      2     27     25 
    11     11      2      1      3     28 
    12     12      2      1      3     29 
    13     13      4      3      5     30 
    14     14      4      3      5     31 
    15     15      9     33     32      8 
    16     16      9     34     32      8 
    17     17     10     35     36      8 
    18     18     11     12     37      3 
    19     19     11     12      3     38 
    20     20     16     39     15     40 
    21     21     16     41     39     15 
    22     22     17     42     43     15 
    23     23     18      3     44     19 
    24     24     18      3     45     19 
    25     25     23     46     47     22 
    26     26     23     46     22     48 
    27     27     24     49     50     22 

