LAMMPS data file Created by LigParGen - (Written by Leela S. Dodda)

      17 atoms
      17 bonds
      30 angles
      42 dihedrals
      10 impropers
 
      17 atom types
      17 bond types
      30 angle types
      42 dihedral types
      10 improper types
 
   -3.889330    46.110670 xlo xhi
   -0.506020    49.493980 ylo yhi
   -0.949160    49.050840 zlo zhi

Masses

       1     12.011  
       2     12.011  
       3     14.007  
       4     12.011  
       5     12.011  
       6     12.011  
       7     12.011  
       8     15.999  
       9      1.008  
      10      1.008  
      11      1.008  
      12      1.008  
      13      1.008  
      14      1.008  
      15      1.008  
      16      1.008  
      17      1.008  

Pair Coeffs 

       1      0.076  3.5500000 
       2      0.076  3.5500000 
       3      0.170  3.2500000 
       4      0.066  3.5000000 
       5      0.066  3.5000000 
       6      0.066  3.5000000 
       7      0.070  3.5500000 
       8      0.210  2.9600000 
       9      0.030  2.5000000 
      10      0.030  2.5000000 
      11      0.030  2.5000000 
      12      0.030  2.5000000 
      13      0.030  2.5000000 
      14      0.030  2.5000000 
      15      0.030  2.5000000 
      16      0.030  2.5000000 
      17      0.030  2.5000000 

Bond Coeffs 

       1   549.0000     1.3400 
       2   448.0000     1.3650 
       3   337.0000     1.4750 
       4   268.0000     1.5290 
       5   268.0000     1.5290 
       6   418.0000     1.3880 
       7   570.0000     1.2290 
       8   340.0000     1.0800 
       9   340.0000     1.0800 
      10   340.0000     1.0800 
      11   340.0000     1.0900 
      12   340.0000     1.0900 
      13   340.0000     1.0900 
      14   340.0000     1.0900 
      15   340.0000     1.0900 
      16   340.0000     1.0900 
      17   317.0000     1.5220 

Angle Coeffs 

       1     70.000    121.200
       2     63.000    112.400
       3     51.650    110.580
       4     58.350    112.700
       5     70.000    121.600
       6     80.000    120.600
       7     35.000    120.000
       8     35.000    120.000
       9     35.000    120.000
      10     35.000    109.500
      11     35.000    109.500
      12     37.500    110.700
      13     37.500    110.700
      14     37.500    110.700
      15     37.500    110.700
      16     35.000    109.500
      17     37.500    110.700
      18     37.500    110.700
      19     33.000    107.800
      20     63.000    111.100
      21     33.000    107.800
      22     69.900    118.180
      23     63.000    112.400
      24     37.500    110.700
      25     80.000    120.400
      26     35.000    119.100
      27     35.000    109.500
      28     35.000    117.000
      29     37.500    110.700
      30     33.000    107.800

Dihedral Coeffs  

       1     -3.500      3.000      0.000      0.000 
       2      1.000     -0.350      0.000      0.000 
       3      2.392     -0.674      0.550      0.000 
       4      0.000     14.000      0.000      0.000 
       5      0.000      0.000      0.000      0.000 
       6      0.000      0.462      0.000      0.000 
       7      0.000      0.000      0.000      0.000 
       8      0.000      0.000      0.300      0.000 
       9      0.000      0.000      0.300      0.000 
      10      0.000      6.089      0.000      0.000 
      11      0.000      4.900      0.000      0.000 
      12      0.000      4.900      0.000      0.000 
      13      0.000      0.000      0.000      0.000 
      14      0.000      0.000      0.000      0.000 
      15     -3.500      3.000      0.000      0.000 
      16      1.173      0.189     -1.200      0.000 
      17      0.000      0.000      0.000      0.000 
      18      0.000      0.000      0.300      0.000 
      19      0.000      0.000      0.300      0.000 
      20      0.000      0.000      0.300      0.000 
      21      0.000      0.000      0.300      0.000 
      22      0.000      0.000      0.300      0.000 
      23      0.000     14.000      0.000      0.000 
      24      0.000      0.000      0.300      0.000 
      25      0.000      0.000      0.760      0.000 
      26      0.000      0.000     -0.100      0.000 
      27      0.000      0.000     -0.100      0.000 
      28      0.000     14.000      0.000      0.000 
      29     -1.013     -0.709      0.473      0.000 
      30      0.000      0.000      0.300      0.000 
      31     -2.060     -0.313      0.315      0.000 
      32      0.000      0.000      0.300      0.000 
      33      0.000      0.000      0.300      0.000 
      34      0.000      0.000      0.300      0.000 
      35      0.000     14.000      0.000      0.000 
      36      0.000      0.000      0.000      0.000 
      37      0.000      0.000      0.760      0.000 
      38     -1.013     -0.709      0.473      0.000 
      39      0.000      0.000      0.000      0.000 
      40      0.000      0.000      0.000      0.000 
      41      0.000      4.900      0.000      0.000 
      42      0.000      0.000      0.000      0.000 

Improper Coeffs 

       1      0.000      -1       2 
       2     10.500      -1       2 
       3      2.500      -1       2 
       4      2.500      -1       2 
       5      0.000      -1       2 
       6      0.000      -1       2 
       7      0.000      -1       2 
       8      0.000      -1       2 
       9      0.000      -1       2 
      10      0.000      -1       2 

Atoms 

     1      1      1 -0.35030000    0.993772      1.083803     -0.009935
     2      1      2 0.13730000    -0.340800      1.006728     -0.010982
     3      1      3 -0.79420000   -1.144007      0.946123      1.121093
     4      1      4 0.10770000    -0.631634      0.978739      2.487353
     5      1      5 -0.20580000   -1.862287      0.618092      3.342334
     6      1      6 -0.22080000   -3.058119      1.034961      2.474621
     7      1      7 0.60740000    -2.529525      0.986142      1.048291
     8      1      8 -0.46280000   -3.173996      1.003932      0.020750
     9      1      9 0.13810000     1.527214      1.121881     -0.949818
    10      1     10 0.13810000     1.583023      1.112738      0.898187
    11      1     11 0.18030000    -0.919236      0.987880     -0.927234
    12      1     12 0.10830000    -0.239967      1.977084      2.719566
    13      1     13 0.10830000     0.184435      0.261701      2.604762
    14      1     14 0.11370000    -1.839889      1.110334      4.315077
    15      1     15 0.11370000    -1.883944     -0.460714      3.514373
    16      1     16 0.14050000    -3.374600      2.064862      2.673869
    17      1     17 0.14050000    -3.936439      0.397715      2.576693

Bonds 

     1      1      2      1
     2      2      3      2
     3      3      4      3
     4      4      5      4
     5      5      6      5
     6      6      7      3
     7      7      8      7
     8      8      9      1
     9      9     10      1
    10     10     11      2
    11     11     12      4
    12     12     13      4
    13     13     14      5
    14     14     15      5
    15     15     16      6
    16     16     17      6
    17     17      7      6

Angles 

     1      1      1      2      3
     2      2      2      3      4
     3      3      3      4      5
     4      4      4      5      6
     5      5      2      3      7
     6      6      3      7      8
     7      7      2      1      9
     8      8      2      1     10
     9      9      1      2     11
    10     10      3      4     12
    11     11      3      4     13
    12     12      4      5     14
    13     13      4      5     15
    14     14      5      6     16
    15     15      5      6     17
    16     16      7      6     17
    17     17      5      4     12
    18     18      6      5     14
    19     19     16      6     17
    20     20      5      6      7
    21     21     14      5     15
    22     22      3      7      6
    23     23      4      3      7
    24     24      5      4     13
    25     25      6      7      8
    26     26      3      2     11
    27     27      7      6     16
    28     28      9      1     10
    29     29      6      5     15
    30     30     12      4     13

Dihedrals

     1      1      4      3      2      1 
     2      2      5      4      3      2 
     3      3      6      5      4      3 
     4      4      9      1      2      3 
     5      5     12      4      3      7 
     6      6      7      3      4      5 
     7      7     13      4      3      7 
     8      8     17      6      5     15 
     9      9     16      6      5     14 
    10     10      8      7      3      2 
    11     11      6      7      3      4 
    12     12      6      7      3      2 
    13     13     16      6      7      3 
    14     14     16      6      7      8 
    15     15      7      3      2      1 
    16     16      5      6      7      3 
    17     17      8      7      6      5 
    18     18     16      6      5      4 
    19     19     15      5      4     12 
    20     20     16      6      5     15 
    21     21     17      6      5     14 
    22     22     14      5      4     13 
    23     23     11      2      1      9 
    24     24     17      6      5      4 
    25     25     11      2      3      7 
    26     26     15      5      6      7 
    27     27     14      5      6      7 
    28     28     11      2      1     10 
    29     29     15      5      4      3 
    30     30     12      4      5      6 
    31     31      7      6      5      4 
    32     32     15      5      4     13 
    33     33     14      5      4     12 
    34     34     13      4      5      6 
    35     35     10      1      2      3 
    36     36     13      4      3      2 
    37     37     11      2      3      4 
    38     38     14      5      4      3 
    39     39     17      6      7      3 
    40     40     12      4      3      2 
    41     41      8      7      3      4 
    42     42     17      6      7      8 

Impropers

     1      1      3      2      4      7 
     2      2      7      3      6      8 
     3      3      1     10      9      2 
     4      4      2      1     11      3 
     5      5      4      3     12      5 
     6      6      4      5      3     13 
     7      7      5      4     14      6 
     8      8      5      4      6     15 
     9      9      6      5      7     16 
    10     10      6     17      5      7 

