LAMMPS Description

     3  atoms
     2  bonds
     1  angles
     0  dihedrals
     0  impropers

     2  atom types
     1  bond types
     1  angle types
     0  dihedrals types
     0  impropers types

  0.0 34.50 xlo xhi
  0.0 34.50 ylo yhi
  0.0 34.50 zlo zhi

Masses

    1 15.999
    2 1.008
    3 1.008

Atoms

1 1 1 -0.8476  0.0        0.0  0.0
2 1 2  0.4238  0.8164904  0.0  0.577359
3 1 2  0.4238 -0.8164904  0.0  0.577359

Bonds

1 1 1 2
2 2 1 3

Angles

1 1 2 1 3

Pair Coeffs

  1      0.170   3.1200000
  2      0.030   2.5000000
  3      0.030   2.5000000

Bond Coeffs

  1      1000.0   1.00
  2      1000.0   1.00

Angle Coeffs

  1      55.0  104.52


