LAMMPS data file Created by LigParGen - (Written by Leela S. Dodda)

       8 atoms
       7 bonds
      12 angles
       9 dihedrals
       4 impropers
 
       8 atom types
       7 bond types
      12 angle types
       9 dihedral types
       4 improper types
 
   -1.276340    48.723660 xlo xhi
    0.112100    50.112100 ylo yhi
   -1.028250    48.971750 zlo zhi

Masses

       1     12.011  
       2     12.011  
       3    126.904  
       4      1.008  
       5      1.008  
       6      1.008  
       7      1.008  
       8      1.008  

Pair Coeffs 

       1      0.066  3.5000000 
       2      0.066  3.5000000 
       3      0.580  3.5500000 
       4      0.030  2.5000000 
       5      0.030  2.5000000 
       6      0.030  2.5000000 
       7      0.030  2.5000000 
       8      0.030  2.5000000 

Bond Coeffs 

       1   268.0000     1.5290 
       2   200.0000     2.1900 
       3   340.0000     1.0900 
       4   340.0000     1.0900 
       5   340.0000     1.0900 
       6   340.0000     1.0900 
       7   340.0000     1.0900 

Angle Coeffs 

       1     75.000    112.000
       2     37.500    110.700
       3     37.500    110.700
       4     37.500    110.700
       5     37.500    110.700
       6     37.500    110.700
       7     33.000    107.800
       8     33.000    107.800
       9     75.000    111.000
      10     75.000    111.000
      11     33.000    107.800
      12     33.000    107.800

Dihedral Coeffs  

       1      0.000      0.000      0.400      0.000 
       2      0.000      0.000      0.400      0.000 
       3      0.000      0.000      0.300      0.000 
       4      0.000      0.000      0.300      0.000 
       5      0.000      0.000      0.300      0.000 
       6      0.000      0.000      0.300      0.000 
       7      0.000      0.000      0.400      0.000 
       8      0.000      0.000      0.300      0.000 
       9      0.000      0.000      0.300      0.000 

Improper Coeffs 

       1      0.000      -1       2 
       2      0.000      -1       2 
       3      0.000      -1       2 
       4      0.000      -1       2 

Atoms 

     1      1      1 -0.23980000    1.000  1.00000  0.00000
     2      1      2 -0.12990000   -0.519  1.00000  0.00000
     3      1      3 -0.16740000   -1.276  1.00000  1.99247
     4      1      4 0.09630000    1.376  1.00130 -1.02825
     5      1      5 0.09630000    1.399  0.11210  0.50201
     6      1      6 0.09630000    1.399  1.88666  0.50427
     7      1      7 0.12400000   -0.884  0.11755 -0.53619
     8      1      8 0.12400000   -0.884  1.88248 -0.53621

Bonds 

     1      1      2      1
     2      2      3      2
     3      3      4      1
     4      4      5      1
     5      5      6      1
     6      6      7      2
     7      7      8      2

Angles 

     1      1      1      2      3
     2      2      2      1      4
     3      3      2      1      5
     4      4      2      1      6
     5      5      1      2      7
     6      6      1      2      8
     7      7      4      1      5
     8      8      5      1      6
     9      9      3      2      7
    10     10      3      2      8
    11     11      4      1      6
    12     12      7      2      8

Dihedrals

     1      1      4      1      2      3 
     2      2      5      1      2      3 
     3      3      8      2      1      6 
     4      4      7      2      1      5 
     5      5      8      2      1      4 
     6      6      8      2      1      5 
     7      7      6      1      2      3 
     8      8      7      2      1      6 
     9      9      7      2      1      4 

Impropers

     1      1      1      2      4      5 
     2      2      1      2      4      6 
     3      3      2      1      3      7 
     4      4      2      1      3      8 

